ANIMSTEPS 1000
CRYSTAL
PRIMVEC
18.0 0.0 0.0
0.0 18.0 0.0
0.0 0.0 18.0
