ITEM: TIMESTEP
0
ITEM: NUMBER OF ATOMS
64
ITEM: BOX BOUNDS pp pp pp
0.0000000000000000e+00 8.7200000000000006e+00
0.0000000000000000e+00 8.7200000000000006e+00
0.0000000000000000e+00 8.7200000000000006e+00
ITEM: ATOMS id type xs ys zs
1 2 0 0 0
2 2 0.25 0 0.25
3 2 0 0.25 0.25
4 2 0.25 0.25 0
5 1 0.125 0.125 0.125
6 1 0.375 0.125 0.375
7 1 0.125 0.375 0.375
8 1 0.375 0.375 0.125
9 2 0.5 0 0
10 2 0.75 0 0.25
11 2 0.5 0.25 0.25
12 2 0.75 0.25 0
13 1 0.625 0.125 0.125
14 1 0.875 0.125 0.375
15 1 0.625 0.375 0.375
16 1 0.875 0.375 0.125
17 2 0 0.5 0
18 2 0.25 0.5 0.25
19 2 0 0.75 0.25
20 2 0.25 0.75 0
21 1 0.125 0.625 0.125
22 1 0.375 0.625 0.375
23 1 0.125 0.875 0.375
24 1 0.375 0.875 0.125
25 2 0.5 0.5 0
26 2 0.75 0.5 0.25
27 2 0.5 0.75 0.25
28 2 0.75 0.75 0
29 1 0.625 0.625 0.125
30 1 0.875 0.625 0.375
31 1 0.625 0.875 0.375
32 1 0.875 0.875 0.125
33 2 0 0 0.5
34 2 0.25 0 0.75
35 2 0 0.25 0.75
36 2 0.25 0.25 0.5
37 1 0.125 0.125 0.625
38 1 0.375 0.125 0.875
39 1 0.125 0.375 0.875
40 1 0.375 0.375 0.625
41 2 0.5 0 0.5
42 2 0.75 0 0.75
43 2 0.5 0.25 0.75
44 2 0.75 0.25 0.5
45 1 0.625 0.125 0.625
46 1 0.875 0.125 0.875
47 1 0.625 0.375 0.875
48 1 0.875 0.375 0.625
49 2 0 0.5 0.5
50 2 0.25 0.5 0.75
51 2 0 0.75 0.75
52 2 0.25 0.75 0.5
53 1 0.125 0.625 0.625
54 1 0.375 0.625 0.875
55 1 0.125 0.875 0.875
56 1 0.375 0.875 0.625
57 2 0.5 0.5 0.5
58 2 0.75 0.5 0.75
59 2 0.5 0.75 0.75
60 2 0.75 0.75 0.5
61 1 0.625 0.625 0.625
62 1 0.875 0.625 0.875
63 1 0.625 0.875 0.875
64 1 0.875 0.875 0.625
ITEM: TIMESTEP
10
ITEM: NUMBER OF ATOMS
64
ITEM: BOX BOUNDS pp pp pp
1.6059034951574347e-03 8.7183940965048414e+00
1.6059034951574347e-03 8.7183940965048414e+00
1.6059034951574347e-03 8.7183940965048414e+00
ITEM: ATOMS id type xs ys zs
1 2 -0.000905219 0.000796126 0.00102732
2 2 0.248958 -0.00106409 0.248999
3 2 0.000606644 0.250234 0.250952
4 2 0.250649 0.249664 -0.000675132
5 1 0.124662 0.125475 0.125731
6 1 0.374486 0.124803 0.374323
7 1 0.124661 0.374549 0.375554
8 1 0.374577 0.375657 0.124628
9 2 0.50098 0.00102731 -0.000422492
10 2 0.750301 6.92986e-05 0.249331
11 2 0.500935 0.249668 0.251104
12 2 0.751025 0.251016 -0.00099953
13 1 0.625636 0.125616 0.124801
14 1 0.874423 0.125331 0.375138
15 1 0.624626 0.374564 0.375751
16 1 0.874723 0.375087 0.125325
17 2 0.000244181 0.500039 -0.000260896
18 2 0.250229 0.499645 0.250524
19 2 -0.000838022 0.750111 0.249013
20 2 0.250159 0.749304 0.000390185
21 1 0.125663 0.624796 0.125199
22 1 0.374951 0.624443 0.374485
23 1 0.125086 0.874445 0.374495
24 1 0.374908 0.87464 0.124621
25 2 0.500178 0.499085 0.000538767
26 2 0.750195 0.499809 0.249534
27 2 0.500897 0.749307 0.249799
28 2 0.750314 0.750916 0.00110133
29 1 0.625024 0.625357 0.125298
30 1 0.87458 0.624755 0.374902
31 1 0.625439 0.875105 0.374693
32 1 0.874806 0.874742 0.125226
33 2 -0.000812372 -7.33483e-05 0.500515
34 2 0.248982 -0.00105065 0.749879
35 2 0.000317211 0.249942 0.750407
36 2 0.249055 0.250489 0.498994
37 1 0.125427 0.125392 0.625649
38 1 0.375263 0.1248 0.874501
39 1 0.1254 0.375751 0.874763
40 1 0.374885 0.374441 0.624458
41 2 0.4995 0.000697593 0.498952
42 2 0.749895 0.000690759 0.750518
43 2 0.499652 0.250491 0.749246
44 2 0.748935 0.250945 0.500389
45 1 0.625579 0.124626 0.625581
46 1 0.874962 0.12475 0.874711
47 1 0.62548 0.375237 0.875593
48 1 0.87504 0.375225 0.625654
49 2 0.000913662 0.499419 0.500614
50 2 0.250402 0.500044 0.750492
51 2 -9.17501e-05 0.750538 0.750804
52 2 0.248883 0.74922 0.499623
53 1 0.124654 0.625378 0.624382
54 1 0.375654 0.625198 0.875091
55 1 0.12439 0.874486 0.874708
56 1 0.374502 0.874463 0.624643
57 2 0.500514 0.499622 0.500065
58 2 0.749621 0.500909 0.749656
59 2 0.499511 0.749161 0.751129
60 2 0.750969 0.74897 0.50062
61 1 0.625563 0.625257 0.624898
62 1 0.875037 0.625147 0.874632
63 1 0.625108 0.87525 0.87546
64 1 0.874732 0.875387 0.624313
ITEM: TIMESTEP
20
ITEM: NUMBER OF ATOMS
64
ITEM: BOX BOUNDS pp pp pp
6.2626675819403843e-03 8.7137373324180523e+00
6.2626675819403843e-03 8.7137373324180523e+00
6.2626675819403843e-03 8.7137373324180523e+00
ITEM: ATOMS id type xs ys zs
1 2 -0.00179478 0.00157427 0.00203673
2 2 0.247935 -0.00211155 0.248012
3 2 0.00119038 0.250468 0.251894
4 2 0.251282 0.249338 -0.00133801
5 1 0.124326 0.125949 0.126454
6 1 0.373968 0.124605 0.373645
7 1 0.124325 0.374105 0.376105
8 1 0.374162 0.376302 0.124265
9 2 0.501942 0.00203838 -0.000834216
10 2 0.750598 0.000142093 0.248674
11 2 0.501844 0.249348 0.252177
12 2 0.752037 0.252013 -0.00197826
13 1 0.626273 0.126235 0.124601
14 1 0.873848 0.125663 0.375279
15 1 0.624258 0.374136 0.376496
16 1 0.874457 0.375174 0.125646
17 2 0.000485984 0.500081 -0.000514167
18 2 0.250447 0.499289 0.251039
19 2 -0.0016594 0.750208 0.248046
20 2 0.250316 0.748618 0.000765776
21 1 0.126318 0.624591 0.125398
22 1 0.374906 0.623888 0.373976
23 1 0.12516 0.873892 0.373992
24 1 0.374822 0.874283 0.124241
25 2 0.500358 0.498198 0.00107018
26 2 0.750375 0.499616 0.249086
27 2 0.501773 0.74863 0.249602
28 2 0.750621 0.751811 0.00217936
29 1 0.625052 0.625706 0.125593
30 1 0.87417 0.624505 0.374804
31 1 0.625878 0.875205 0.374389
32 1 0.874613 0.874491 0.12545
33 2 -0.00160328 -0.000138305 0.501014
34 2 0.247986 -0.00208627 0.74976
35 2 0.000632075 0.24989 0.750813
36 2 0.248129 0.250958 0.498008
37 1 0.125846 0.12578 0.626291
38 1 0.375525 0.124599 0.874
39 1 0.125798 0.376493 0.874529
40 1 0.374768 0.373889 0.623915
41 2 0.49901 0.00137525 0.497926
42 2 0.749795 0.00135955 0.751026
43 2 0.499318 0.250969 0.748508
44 2 0.747895 0.25187 0.500784
45 1 0.626147 0.124258 0.626156
46 1 0.874928 0.124508 0.874426
47 1 0.625955 0.375475 0.876175
48 1 0.875079 0.375451 0.626305
49 2 0.00180011 0.498849 0.501215
50 2 0.250803 0.500097 0.750963
51 2 -0.000191539 0.751066 0.751577
52 2 0.24779 0.748448 0.499239
53 1 0.124311 0.625752 0.623775
54 1 0.376303 0.625386 0.875187
55 1 0.123781 0.873978 0.874429
56 1 0.374005 0.873926 0.624286
57 2 0.501016 0.499252 0.500131
58 2 0.749253 0.501804 0.749326
59 2 0.499041 0.748346 0.752231
60 2 0.751916 0.747967 0.501222
61 1 0.626118 0.625512 0.624799
62 1 0.875072 0.625298 0.874272
63 1 0.625218 0.8755 0.875918
64 1 0.874465 0.875771 0.623639
ITEM: TIMESTEP
30
ITEM: NUMBER OF ATOMS
64
ITEM: BOX BOUNDS pp pp pp
1.3501414492480990e-02 8.7064985855075108e+00
1.3501414492480990e-02 8.7064985855075108e+00
1.3501414492480990e-02 8.7064985855075108e+00
ITEM: ATOMS id type xs ys zs
1 2 -0.00265348 0.00231745 0.00301149
2 2 0.246952 -0.0031265 0.247053
3 2 0.00172838 0.250703 0.252813
4 2 0.251884 0.249031 -0.00197695
5 1 0.123994 0.126419 0.127162
6 1 0.373442 0.124407 0.372964
7 1 0.123996 0.373676 0.376646
8 1 0.373763 0.37692 0.123918
9 2 0.502867 0.00301797 -0.00122475
10 2 0.750889 0.000221991 0.248041
11 2 0.502703 0.249048 0.253191
12 2 0.753025 0.252972 -0.00291567
13 1 0.626915 0.126856 0.124397
14 1 0.873276 0.125998 0.375424
15 1 0.623898 0.373722 0.37723
16 1 0.874211 0.375261 0.125959
17 2 0.000723055 0.500127 -0.000752383
18 2 0.25064 0.49893 0.25154
19 2 -0.00244774 0.750281 0.247118
20 2 0.250471 0.747953 0.00111245
21 1 0.126959 0.624383 0.125597
22 1 0.374869 0.623337 0.373481
23 1 0.125213 0.873343 0.373492
24 1 0.374749 0.873933 0.123859
25 2 0.500545 0.497367 0.00158681
26 2 0.750525 0.499421 0.248675
27 2 0.502607 0.747984 0.249416
28 2 0.750914 0.752665 0.0032109
29 1 0.625088 0.626041 0.12588
30 1 0.873778 0.624246 0.374708
31 1 0.626316 0.875299 0.374088
32 1 0.874422 0.874257 0.125674
33 2 -0.0023519 -0.000186 0.501482
34 2 0.247032 -0.00309267 0.749647
35 2 0.000942304 0.249851 0.751215
36 2 0.247243 0.251386 0.497062
37 1 0.126251 0.126159 0.626917
38 1 0.375782 0.124394 0.873495
39 1 0.126194 0.377219 0.874302
40 1 0.374648 0.373352 0.623372
41 2 0.498539 0.00201321 0.496941
42 2 0.749704 0.00198416 0.751513
43 2 0.499014 0.251424 0.747804
44 2 0.746905 0.252755 0.501191
45 1 0.626694 0.123904 0.626717
46 1 0.8749 0.12428 0.87415
47 1 0.62642 0.375717 0.876735
48 1 0.875116 0.375675 0.626952
49 2 0.00263239 0.4983 0.501792
50 2 0.251202 0.500167 0.751391
51 2 -0.000307839 0.751576 0.752289
52 2 0.246744 0.747693 0.498841
53 1 0.123971 0.626118 0.623192
54 1 0.376944 0.625555 0.875296
55 1 0.123176 0.87348 0.874177
56 1 0.373508 0.873385 0.623928
57 2 0.501494 0.498901 0.500198
58 2 0.748907 0.50267 0.749022
59 2 0.49861 0.74758 0.753279
60 2 0.752822 0.747016 0.501786
61 1 0.626657 0.625762 0.624706
62 1 0.875103 0.625458 0.873926
63 1 0.62533 0.875748 0.876373
64 1 0.874199 0.876147 0.622993
ITEM: TIMESTEP
40
ITEM: NUMBER OF ATOMS
64
ITEM: BOX BOUNDS pp pp pp
2.2587478403628403e-02 8.6974125215963678e+00
2.2587478403628403e-02 8.6974125215963678e+00
2.2587478403628403e-02 8.6974125215963678e+00
ITEM: ATOMS id type xs ys zs
1 2 -0.00346666 0.00300998 0.00393617
2 2 0.246026 -0.00409407 0.246137
3 2 0.00219813 0.250936 0.2537
4 2 0.25244 0.248751 -0.00258107
5 1 0.123667 0.126883 0.127846
6 1 0.372906 0.124209 0.372279
7 1 0.123675 0.373268 0.377175
8 1 0.373386 0.377501 0.123594
9 2 0.503739 0.00395203 -0.0015841
10 2 0.75117 0.00031278 0.247444
11 2 0.50349 0.248777 0.254118
12 2 0.753976 0.253875 -0.00379191
13 1 0.627564 0.127482 0.124188
14 1 0.872711 0.126336 0.375575
15 1 0.623553 0.373329 0.377947
16 1 0.873997 0.375348 0.126262
17 2 0.000953063 0.500181 -0.000968397
18 2 0.250797 0.498566 0.252017
19 2 -0.00318715 0.750316 0.246251
20 2 0.250622 0.747319 0.00141638
21 1 0.127578 0.624169 0.125797
22 1 0.374844 0.622789 0.373005
23 1 0.125234 0.872801 0.372997
24 1 0.374694 0.873593 0.123474
25 2 0.500741 0.496619 0.00208128
26 2 0.750631 0.499224 0.248317
27 2 0.503379 0.747387 0.249246
28 2 0.751184 0.753458 0.0041732
29 1 0.625135 0.626353 0.126155
30 1 0.873414 0.623972 0.374613
31 1 0.626754 0.875384 0.373794
32 1 0.874237 0.874046 0.125894
33 2 -0.00303823 -0.000207202 0.501901
34 2 0.246142 -0.00405684 0.749542
35 2 0.00124573 0.249832 0.751613
36 2 0.246417 0.251753 0.496178
37 1 0.126636 0.126525 0.627521
38 1 0.376033 0.124185 0.872985
39 1 0.126585 0.377921 0.874085
40 1 0.374524 0.372836 0.622829
41 2 0.498096 0.00259221 0.496019
42 2 0.749626 0.00254251 0.75197
43 2 0.498751 0.251842 0.747147
44 2 0.745989 0.253581 0.501618
45 1 0.627211 0.12357 0.62726
46 1 0.874882 0.124074 0.873886
47 1 0.626873 0.375964 0.877264
48 1 0.875151 0.375899 0.627593
49 2 0.00338411 0.497781 0.502334
50 2 0.251597 0.500263 0.751756
51 2 -0.00044948 0.752056 0.752908
52 2 0.245769 0.746964 0.498422
53 1 0.123638 0.626472 0.622644
54 1 0.377572 0.625696 0.875423
55 1 0.122576 0.872997 0.873966
56 1 0.373013 0.872841 0.623568
57 2 0.501936 0.498577 0.500267
58 2 0.748592 0.503494 0.748758
59 2 0.498237 0.746886 0.754247
60 2 0.753667 0.746143 0.502294
61 1 0.627172 0.626005 0.624623
62 1 0.875126 0.62563 0.873602
63 1 0.625447 0.875996 0.876822
64 1 0.873933 0.876511 0.622388
ITEM: TIMESTEP
50
ITEM: NUMBER OF ATOMS
64
ITEM: BOX BOUNDS pp pp pp
3.2590352398973010e-02 8.6874096476010259e+00
3.2590352398973010e-02 8.6874096476010259e+00
3.2590352398973010e-02 8.6874096476010259e+00
ITEM: ATOMS id type xs ys zs
1 2 -0.00422038 0.00363768 0.00479691
2 2 0.245177 -0.00500078 0.245276
3 2 0.00257778 0.251168 0.254544
4 2 0.252938 0.248507 -0.00314049
5 1 0.123346 0.127341 0.1285
6 1 0.372354 0.12401 0.371589
7 1 0.123365 0.372891 0.377686
8 1 0.373036 0.378033 0.123301
9 2 0.504542 0.00482795 -0.00190274
10 2 0.751436 0.000418468 0.246895
11 2 0.504184 0.248542 0.254933
12 2 0.754879 0.254704 -0.00458822
13 1 0.62822 0.128115 0.123971
14 1 0.872152 0.12668 0.375735
15 1 0.623225 0.372964 0.378643
16 1 0.873824 0.375435 0.12655
17 2 0.00117373 0.500247 -0.00115546
18 2 0.250907 0.498197 0.252464
19 2 -0.0038626 0.750299 0.245463
20 2 0.250768 0.746726 0.00166447
21 1 0.128169 0.623947 0.125998
22 1 0.374834 0.622248 0.372555
23 1 0.125213 0.872266 0.372508
24 1 0.374661 0.873265 0.123086
25 2 0.50095 0.495981 0.00254658
26 2 0.75068 0.499023 0.24803
27 2 0.504069 0.746853 0.249098
28 2 0.751424 0.754171 0.00504439
29 1 0.6252 0.626636 0.126415
30 1 0.873086 0.623679 0.37452
31 1 0.627191 0.875456 0.373506
32 1 0.874057 0.873867 0.126112
33 2 -0.00364346 -0.000192582 0.502257
34 2 0.245335 -0.00496722 0.749446
35 2 0.00154039 0.249839 0.752005
36 2 0.245672 0.252038 0.495376
37 1 0.126994 0.126875 0.628096
38 1 0.376277 0.123969 0.872466
39 1 0.126972 0.378591 0.873881
40 1 0.374394 0.372348 0.622285
41 2 0.497689 0.00309393 0.495175
42 2 0.749566 0.00301313 0.752389
43 2 0.498543 0.252214 0.746553
44 2 0.745172 0.254329 0.502072
45 1 0.627686 0.123263 0.627778
46 1 0.874877 0.123897 0.873639
47 1 0.627307 0.376219 0.877752
48 1 0.875183 0.376123 0.628227
49 2 0.00402988 0.497302 0.50283
50 2 0.25199 0.500392 0.75204
51 2 -0.000625432 0.752496 0.753408
52 2 0.244889 0.74627 0.497976
53 1 0.123313 0.62681 0.622141
54 1 0.378182 0.625797 0.875574
55 1 0.121985 0.872534 0.873806
56 1 0.372521 0.872293 0.623206
57 2 0.502329 0.498289 0.500339
58 2 0.74832 0.504263 0.748546
59 2 0.497943 0.74629 0.755108
60 2 0.754433 0.74537 0.502729
61 1 0.627653 0.62624 0.624551
62 1 0.87514 0.625818 0.873308
63 1 0.625571 0.876241 0.877263
64 1 0.873667 0.876862 0.621837
ITEM: TIMESTEP
60
ITEM: NUMBER OF ATOMS
64
ITEM: BOX BOUNDS pp pp pp
4.2441822785423966e-02 8.6775581772145731e+00
4.2441822785423966e-02 8.6775581772145731e+00
4.2441822785423966e-02 8.6775581772145731e+00
ITEM: ATOMS id type xs ys zs
1 2 -0.00490157 0.00418808 0.00558141
2 2 0.24442 -0.00583478 0.244481
3 2 0.00284662 0.251398 0.255335
4 2 0.253365 0.248305 -0.00364656
5 1 0.123031 0.12779 0.129115
6 1 0.371785 0.12381 0.370891
7 1 0.123068 0.372551 0.378175
8 1 0.372725 0.378497 0.123045
9 2 0.505262 0.00563466 -0.00217182
10 2 0.751685 0.000543315 0.246404
11 2 0.504765 0.24835 0.25561
12 2 0.755726 0.255444 -0.00528737
13 1 0.628887 0.128757 0.123746
14 1 0.871602 0.127029 0.375906
15 1 0.622918 0.372633 0.379314
16 1 0.873701 0.375523 0.126821
17 2 0.00138287 0.500325 -0.00130734
18 2 0.250958 0.497819 0.252874
19 2 -0.00446029 0.75022 0.244773
20 2 0.250909 0.746181 0.00184472
21 1 0.12872 0.623723 0.1262
22 1 0.374843 0.621715 0.372137
23 1 0.125141 0.871739 0.372025
24 1 0.374657 0.872952 0.122694
25 2 0.501175 0.495477 0.00297627
26 2 0.75066 0.498818 0.247828
27 2 0.504658 0.746398 0.248979
28 2 0.751625 0.754784 0.00580393
29 1 0.625285 0.626882 0.126655
30 1 0.872802 0.623363 0.374428
31 1 0.627627 0.875514 0.373228
32 1 0.873886 0.873728 0.126326
33 2 -0.0041503 -0.000133103 0.502536
34 2 0.244627 -0.00581386 0.749363
35 2 0.00182456 0.249878 0.752389
36 2 0.245027 0.25222 0.494674
37 1 0.127321 0.127204 0.628636
38 1 0.376512 0.123747 0.871939
39 1 0.127352 0.379223 0.873694
40 1 0.374258 0.371894 0.62174
41 2 0.497325 0.00350142 0.494427
42 2 0.749529 0.00337597 0.752762
43 2 0.498401 0.252528 0.746034
44 2 0.744476 0.25498 0.50256
45 1 0.628112 0.122988 0.628266
46 1 0.87489 0.123755 0.873412
47 1 0.62772 0.376484 0.87819
48 1 0.875211 0.376345 0.628851
49 2 0.00454585 0.49687 0.503271
50 2 0.252381 0.500563 0.752224
51 2 -0.000844448 0.752888 0.75376
52 2 0.244123 0.745619 0.497495
53 1 0.122996 0.627128 0.621694
54 1 0.378769 0.625851 0.875757
55 1 0.121404 0.872096 0.873712
56 1 0.372031 0.871737 0.622841
57 2 0.502663 0.498047 0.500417
58 2 0.748099 0.504963 0.748399
59 2 0.497746 0.745814 0.755841
60 2 0.755101 0.744718 0.503075
61 1 0.628095 0.626464 0.624494
62 1 0.875143 0.626025 0.873048
63 1 0.625702 0.876483 0.877694
64 1 0.873402 0.877194 0.62135
ITEM: TIMESTEP
70
ITEM: NUMBER OF ATOMS
64
ITEM: BOX BOUNDS pp pp pp
5.0440434608702844e-02 8.6695595653912942e+00
5.0440434608702844e-02 8.6695595653912942e+00
5.0440434608702844e-02 8.6695595653912942e+00
ITEM: ATOMS id type xs ys zs
1 2 -0.00549813 0.00465046 0.00627895
2 2 0.243769 -0.00658655 0.243763
3 2 0.00298555 0.251624 0.256063
4 2 0.253709 0.248151 -0.00409209
5 1 0.1227 0.128231 0.129664
6 1 0.371219 0.123608 0.370208
7 1 0.122785 0.372256 0.37864
8 1 0.372509 0.378831 0.122827
9 2 0.505887 0.00636272 -0.00238329
10 2 0.751912 0.000691805 0.245982
11 2 0.505219 0.248206 0.256131
12 2 0.756507 0.25608 -0.00587416
13 1 0.629559 0.129403 0.123511
14 1 0.871062 0.127386 0.37609
15 1 0.62265 0.372341 0.37994
16 1 0.873645 0.375619 0.127073
17 2 0.00157829 0.500421 -0.00141857
18 2 0.250941 0.497431 0.253244
19 2 -0.00496801 0.750065 0.244198
20 2 0.251043 0.745692 0.00194651
21 1 0.12917 0.623547 0.126401
22 1 0.374878 0.621192 0.371759
23 1 0.12501 0.871222 0.371548
24 1 0.374685 0.872657 0.122296
25 2 0.501419 0.495128 0.00336471
26 2 0.750559 0.49861 0.247724
27 2 0.50513 0.746035 0.248894
28 2 0.751779 0.755282 0.00643324
29 1 0.625395 0.627085 0.126871
30 1 0.872568 0.62302 0.374339
31 1 0.628061 0.875556 0.372959
32 1 0.873724 0.873636 0.126535
33 2 -0.0045435 -2.05062e-05 0.502723
34 2 0.244034 -0.00658858 0.749294
35 2 0.00209684 0.249955 0.752764
36 2 0.2445 0.25228 0.49409
37 1 0.127604 0.127506 0.629135
38 1 0.376738 0.123516 0.871401
39 1 0.127725 0.379812 0.873525
40 1 0.374103 0.371484 0.621207
41 2 0.497009 0.00379943 0.493786
42 2 0.749517 0.00361308 0.753084
43 2 0.498335 0.252777 0.745603
44 2 0.743921 0.255518 0.50309
45 1 0.628462 0.122763 0.628715
46 1 0.874927 0.123654 0.873213
47 1 0.628108 0.37676 0.878568
48 1 0.875235 0.376567 0.629467
49 2 0.00491022 0.496491 0.50365
50 2 0.252769 0.500781 0.752295
51 2 -0.00111457 0.753221 0.753942
52 2 0.24349 0.745019 0.496972
53 1 0.122688 0.627425 0.62131
54 1 0.379331 0.625848 0.875976
55 1 0.120838 0.871689 0.873692
56 1 0.371544 0.871174 0.62247
57 2 0.502928 0.497859 0.5005
58 2 0.74794 0.505584 0.748327
59 2 0.497663 0.74548 0.756422
60 2 0.755656 0.744207 0.503317
61 1 0.628488 0.626677 0.624452
62 1 0.875132 0.626253 0.87283
63 1 0.625843 0.876722 0.878114
64 1 0.873149 0.877493 0.620939
ITEM: TIMESTEP
80
ITEM: NUMBER OF ATOMS
64
ITEM: BOX BOUNDS pp pp pp
5.3298945561151889e-02 8.6667010544388425e+00
5.3298945561151889e-02 8.6667010544388425e+00
5.3298945561151889e-02 8.6667010544388425e+00
ITEM: ATOMS id type xs ys zs
1 2 -0.0059991 0.0050154 0.00688006
2 2 0.243236 -0.0072507 0.243129
3 2 0.00297766 0.251845 0.256722
4 2 0.253963 0.248049 -0.00447159
5 1 0.122295 0.128664 0.130084
6 1 0.370711 0.123403 0.369593
7 1 0.122517 0.372012 0.379076
8 1 0.372449 0.378947 0.122625
9 2 0.506407 0.00700389 -0.00253045
10 2 0.752115 0.000868404 0.24564
11 2 0.505531 0.248114 0.256476
12 2 0.757216 0.256602 -0.00633679
13 1 0.630192 0.130003 0.123269
14 1 0.870534 0.127752 0.37629
15 1 0.622478 0.372094 0.380464
16 1 0.873705 0.375768 0.127305
17 2 0.0017576 0.500536 -0.00148488
18 2 0.250848 0.49703 0.253573
19 2 -0.00537582 0.749827 0.243754
20 2 0.251169 0.745266 0.00196109
21 1 0.129429 0.623473 0.126569
22 1 0.374971 0.620705 0.371482
23 1 0.124812 0.870716 0.37108
24 1 0.374749 0.872383 0.121893
25 2 0.501687 0.494951 0.00370698
26 2 0.750371 0.498397 0.24773
27 2 0.505469 0.745775 0.248847
28 2 0.751881 0.755649 0.00691628
29 1 0.625533 0.627239 0.127061
30 1 0.872391 0.622646 0.374252
31 1 0.628482 0.875581 0.372711
32 1 0.873584 0.873597 0.12673
33 2 -0.00481025 0.000151889 0.502807
34 2 0.24357 -0.00728507 0.74924
35 2 0.00235595 0.250074 0.753129
36 2 0.244106 0.252203 0.493637
37 1 0.127781 0.127738 0.62957
38 1 0.376975 0.123275 0.870872
39 1 0.128091 0.380353 0.873378
40 1 0.373914 0.371162 0.620739
41 2 0.496746 0.00397423 0.493265
42 2 0.749535 0.00370918 0.753352
43 2 0.498352 0.252955 0.74527
44 2 0.743528 0.255931 0.503667
45 1 0.628646 0.122641 0.629086
46 1 0.875029 0.123599 0.87308
47 1 0.628468 0.377055 0.878874
48 1 0.875254 0.376788 0.630072
49 2 0.00510402 0.496173 0.503961
50 2 0.253156 0.501051 0.752239
51 2 -0.00144217 0.753489 0.753934
52 2 0.243008 0.744476 0.496404
53 1 0.122387 0.627693 0.620997
54 1 0.379864 0.625781 0.876234
55 1 0.120321 0.871348 0.873756
56 1 0.371065 0.870604 0.622095
57 2 0.503114 0.497734 0.500592
58 2 0.747849 0.506116 0.74834
59 2 0.497706 0.745305 0.756835
60 2 0.756086 0.743851 0.503442
61 1 0.628828 0.626878 0.624428
62 1 0.875072 0.626472 0.872659
63 1 0.625995 0.876955 0.878521
64 1 0.872958 0.877708 0.620609
ITEM: TIMESTEP
90
ITEM: NUMBER OF ATOMS
64
ITEM: BOX BOUNDS pp pp pp
4.8292758846824491e-02 8.6717072411531717e+00
4.8292758846824491e-02 8.6717072411531717e+00
4.8292758846824491e-02 8.6717072411531717e+00
ITEM: ATOMS id type xs ys zs
1 2 -0.00639525 0.00527525 0.00737611
2 2 0.242829 -0.00782293 0.242585
3 2 0.00281006 0.25206 0.257302
4 2 0.25412 0.248003 -0.00478127
5 1 0.121782 0.129085 0.130332
6 1 0.370298 0.123195 0.369081
7 1 0.122265 0.371829 0.379487
8 1 0.372566 0.37879 0.122414
9 2 0.506814 0.00755038 -0.00260863
10 2 0.752288 0.00107731 0.245385
11 2 0.505694 0.248077 0.256631
12 2 0.757845 0.257001 -0.00666646
13 1 0.630751 0.130499 0.123046
14 1 0.870025 0.12812 0.376508
15 1 0.622437 0.371898 0.380847
16 1 0.873921 0.376004 0.127517
17 2 0.00191869 0.500674 -0.00150387
18 2 0.250674 0.496613 0.253858
19 2 -0.00567734 0.749498 0.243452
20 2 0.251286 0.744909 0.00188275
21 1 0.129447 0.623501 0.126661
22 1 0.375152 0.620281 0.371361
23 1 0.124543 0.870242 0.370638
24 1 0.374852 0.87214 0.121492
25 2 0.501979 0.494958 0.00399917
26 2 0.750092 0.498181 0.247854
27 2 0.505667 0.745628 0.248841
28 2 0.751924 0.755875 0.00724069
29 1 0.625703 0.627339 0.127223
30 1 0.872274 0.622238 0.374169
31 1 0.628853 0.875588 0.372512
32 1 0.873499 0.873613 0.126878
33 2 -0.00494206 0.000387424 0.502781
34 2 0.243244 -0.00789854 0.749202
35 2 0.00260051 0.25024 0.753481
36 2 0.243856 0.251977 0.493328
37 1 0.127785 0.127866 0.629908
38 1 0.37725 0.123025 0.870384
39 1 0.128447 0.380841 0.873255
40 1 0.373687 0.370963 0.620373
41 2 0.496539 0.00401487 0.492872
42 2 0.749586 0.00365465 0.753563
43 2 0.498457 0.253057 0.745042
44 2 0.743308 0.256206 0.504296
45 1 0.628599 0.122651 0.629346
46 1 0.875228 0.123594 0.873047
47 1 0.628797 0.377395 0.879079
48 1 0.875267 0.377001 0.630661
49 2 0.00511271 0.495922 0.504201
50 2 0.253539 0.501376 0.752049
51 2 -0.00183024 0.753685 0.753723
52 2 0.242686 0.743995 0.495786
53 1 0.122071 0.627908 0.62076
54 1 0.380366 0.62564 0.876526
55 1 0.119895 0.871117 0.873911
56 1 0.370618 0.87005 0.621712
57 2 0.503216 0.497681 0.500693
58 2 0.747834 0.50655 0.748445
59 2 0.497885 0.745301 0.757067
60 2 0.75638 0.743662 0.503439
61 1 0.629107 0.627065 0.624423
62 1 0.874924 0.626651 0.872545
63 1 0.626159 0.877183 0.878911
64 1 0.872859 0.877809 0.620369
ITEM: TIMESTEP
100
ITEM: NUMBER OF ATOMS
64
ITEM: BOX BOUNDS pp pp pp
3.6089918172599766e-02 8.6839100818273991e+00
3.6089918172599766e-02 8.6839100818273991e+00
3.6089918172599766e-02 8.6839100818273991e+00
ITEM: ATOMS id type xs ys zs
1 2 -0.00667943 0.00542525 0.00775933
2 2 0.242552 -0.0082954 0.242137
3 2 0.00247638 0.252269 0.257796
4 2 0.254178 0.248013 -0.00501925
5 1 0.121161 0.129492 0.130404
6 1 0.369983 0.122982 0.368675
7 1 0.122031 0.371707 0.379868
8 1 0.372842 0.378388 0.122209
9 2 0.507104 0.00799469 -0.00261556
10 2 0.75243 0.00132039 0.245225
11 2 0.505703 0.248095 0.25659
12 2 0.758389 0.257274 -0.00685459
13 1 0.631232 0.130888 0.12284
14 1 0.869549 0.128481 0.376743
15 1 0.622517 0.371768 0.381087
16 1 0.874298 0.37633 0.127706
17 2 0.00206005 0.500836 -0.00147563
18 2 0.250422 0.496184 0.254088
19 2 -0.00587039 0.74908 0.243302
20 2 0.25139 0.744625 0.00171043
21 1 0.129257 0.623598 0.126678
22 1 0.375405 0.619913 0.371375
23 1 0.124201 0.869814 0.370236
24 1 0.374994 0.871933 0.121097
25 2 0.502296 0.495153 0.00423869
26 2 0.749724 0.497962 0.248096
27 2 0.505717 0.745596 0.248878
28 2 0.751906 0.755954 0.00739972
29 1 0.625904 0.627384 0.127356
30 1 0.87222 0.621799 0.37409
31 1 0.629164 0.875579 0.372371
32 1 0.873478 0.873687 0.126971
33 2 -0.00493732 0.000684563 0.502641
34 2 0.243061 -0.00842282 0.74918
35 2 0.0028293 0.250454 0.753817
36 2 0.243756 0.251598 0.493171
37 1 0.127614 0.127888 0.630147
38 1 0.377562 0.122767 0.869938
39 1 0.128795 0.381275 0.873156
40 1 0.373422 0.370888 0.620112
41 2 0.496389 0.00391537 0.492611
42 2 0.749669 0.00345074 0.753713
43 2 0.498649 0.253084 0.744926
44 2 0.743269 0.256339 0.504974
45 1 0.628345 0.122783 0.629508
46 1 0.875508 0.123642 0.873097
47 1 0.629094 0.37778 0.879176
48 1 0.875276 0.377202 0.631227
49 2 0.00492816 0.49574 0.504367
50 2 0.253914 0.501756 0.751723
51 2 -0.00227654 0.753806 0.753307
52 2 0.24253 0.743583 0.495123
53 1 0.121732 0.628058 0.620602
54 1 0.380834 0.625419 0.876845
55 1 0.119568 0.871002 0.874158
56 1 0.370216 0.869524 0.621325
57 2 0.503231 0.497701 0.500804
58 2 0.747895 0.506881 0.748644
59 2 0.498201 0.745474 0.757113
60 2 0.756532 0.743645 0.503302
61 1 0.629324 0.627236 0.624437
62 1 0.874682 0.626789 0.872496
63 1 0.626335 0.877404 0.879283
64 1 0.872844 0.877808 0.620223
ITEM: TIMESTEP
110
ITEM: NUMBER OF ATOMS
64
ITEM: BOX BOUNDS pp pp pp
2.0678100134328581e-02 8.6993218998656694e+00
2.0678100134328581e-02 8.6993218998656694e+00
2.0678100134328581e-02 8.6993218998656694e+00
ITEM: ATOMS id type xs ys zs
1 2 -0.00684736 0.00546385 0.00802304
2 2 0.242403 -0.00865721 0.241786
3 2 0.0019781 0.252471 0.258199
4 2 0.254138 0.248078 -0.00518567
5 1 0.120466 0.129882 0.130331
6 1 0.369741 0.122764 0.368348
7 1 0.121816 0.371641 0.380216
8 1 0.373216 0.377838 0.122048
9 2 0.507276 0.00833004 -0.00255181
10 2 0.752537 0.00159615 0.245164
11 2 0.505563 0.248165 0.256352
12 2 0.758843 0.257423 -0.00689358
13 1 0.631661 0.131219 0.122633
14 1 0.869102 0.12884 0.376998
15 1 0.622691 0.371694 0.381215
16 1 0.8748 0.376715 0.127872
17 2 0.00218078 0.501027 -0.00140286
18 2 0.250099 0.49575 0.25425
19 2 -0.00595659 0.748577 0.243303
20 2 0.251481 0.744415 0.00144812
21 1 0.128956 0.623712 0.126664
22 1 0.375692 0.619569 0.371453
23 1 0.123788 0.869423 0.369864
24 1 0.375174 0.871757 0.120704
25 2 0.502636 0.495527 0.00442428
26 2 0.749278 0.497742 0.248455
27 2 0.505622 0.74568 0.248953
28 2 0.751829 0.755888 0.00739316
29 1 0.626135 0.627371 0.12746
30 1 0.872227 0.62133 0.374017
31 1 0.629437 0.875553 0.372269
32 1 0.873498 0.873818 0.127033
33 2 -0.00480174 0.00103665 0.50239
34 2 0.243022 -0.00885069 0.749173
35 2 0.00304127 0.250716 0.754132
36 2 0.243806 0.251071 0.493172
37 1 0.127331 0.127831 0.630311
38 1 0.377878 0.122503 0.86951
39 1 0.129132 0.381651 0.873083
40 1 0.373127 0.370909 0.619925
41 2 0.496297 0.00367544 0.492485
42 2 0.749784 0.00310839 0.753795
43 2 0.49892 0.253041 0.744922
44 2 0.743409 0.256328 0.505695
45 1 0.627976 0.122989 0.629613
46 1 0.875826 0.123742 0.87319
47 1 0.629357 0.378185 0.879188
48 1 0.875279 0.377398 0.631777
49 2 0.00454984 0.495632 0.50446
50 2 0.254275 0.502184 0.751268
51 2 -0.00277339 0.753851 0.752699
52 2 0.242539 0.743241 0.494423
53 1 0.121389 0.62816 0.620522
54 1 0.381266 0.625131 0.877195
55 1 0.119312 0.870972 0.874493
56 1 0.369842 0.869011 0.620933
57 2 0.503162 0.497788 0.500922
58 2 0.748033 0.507106 0.748936
59 2 0.498648 0.745817 0.756977
60 2 0.756541 0.7438 0.503031
61 1 0.629476 0.627391 0.62447
62 1 0.87438 0.626909 0.872503
63 1 0.626523 0.877616 0.879633
64 1 0.872863 0.87775 0.620168
ITEM: TIMESTEP
120
ITEM: NUMBER OF ATOMS
64
ITEM: BOX BOUNDS pp pp pp
5.7771450767383214e-03 8.7142228549232605e+00
5.7771450767383214e-03 8.7142228549232605e+00
5.7771450767383214e-03 8.7142228549232605e+00
ITEM: ATOMS id type xs ys zs
1 2 -0.00689819 0.00539265 0.00816234
2 2 0.242378 -0.00889927 0.241532
3 2 0.00132383 0.252666 0.258507
4 2 0.254005 0.248195 -0.0052826
5 1 0.119751 0.13025 0.130163
6 1 0.369525 0.122542 0.368057
7 1 0.121621 0.371629 0.380529
8 1 0.37364 0.377201 0.121941
9 2 0.507331 0.00855119 -0.00242108
10 2 0.752606 0.00190161 0.245205
11 2 0.505283 0.248283 0.255924
12 2 0.759204 0.257455 -0.00678086
13 1 0.632074 0.13154 0.122419
14 1 0.868681 0.129202 0.37727
15 1 0.622911 0.371669 0.381284
16 1 0.875378 0.377112 0.128013
17 2 0.00228034 0.501246 -0.00129052
18 2 0.249716 0.495316 0.254338
19 2 -0.00594122 0.747999 0.243453
20 2 0.251554 0.74428 0.00110395
21 1 0.128603 0.62381 0.126642
22 1 0.376001 0.619244 0.371575
23 1 0.12331 0.869056 0.369507
24 1 0.37539 0.871611 0.120313
25 2 0.502994 0.496068 0.00455602
26 2 0.74877 0.497524 0.248919
27 2 0.50539 0.745872 0.249063
28 2 0.751698 0.755681 0.0072271
29 1 0.626393 0.627303 0.127539
30 1 0.872292 0.620836 0.373952
31 1 0.629691 0.875513 0.372181
32 1 0.873536 0.874001 0.127085
33 2 -0.00454661 0.0014332 0.502033
34 2 0.243123 -0.00917723 0.749176
35 2 0.00323535 0.251023 0.754423
36 2 0.243998 0.250406 0.493332
37 1 0.126994 0.127731 0.630416
38 1 0.378173 0.122237 0.869087
39 1 0.129457 0.381971 0.873034
40 1 0.372822 0.370988 0.619769
41 2 0.496262 0.00329959 0.492491
42 2 0.749928 0.00264451 0.753808
43 2 0.499262 0.252935 0.745026
44 2 0.743719 0.256179 0.506447
45 1 0.627534 0.123235 0.629669
46 1 0.876169 0.123893 0.873315
47 1 0.629585 0.3786 0.879123
48 1 0.875277 0.377589 0.632309
49 2 0.00398475 0.495597 0.504484
50 2 0.254614 0.502652 0.750695
51 2 -0.00330922 0.753822 0.751921
52 2 0.242703 0.742971 0.493699
53 1 0.121065 0.628228 0.620517
54 1 0.381661 0.624784 0.877569
55 1 0.119087 0.870987 0.874907
56 1 0.369484 0.8685 0.620541
57 2 0.503015 0.497934 0.501044
58 2 0.748243 0.507224 0.749312
59 2 0.499214 0.746319 0.756668
60 2 0.756411 0.74412 0.502629
61 1 0.629563 0.627528 0.624523
62 1 0.87406 0.627048 0.872566
63 1 0.62672 0.877819 0.879959
64 1 0.872889 0.877666 0.620202
ITEM: TIMESTEP
130
ITEM: NUMBER OF ATOMS
64
ITEM: BOX BOUNDS pp pp pp
-6.6944225024618831e-03 8.7266944225024616e+00
-6.6944225024618831e-03 8.7266944225024616e+00
-6.6944225024618831e-03 8.7266944225024616e+00
ITEM: ATOMS id type xs ys zs
1 2 -0.00683404 0.00521569 0.00817493
2 2 0.242466 -0.00901788 0.241372
3 2 0.00052711 0.252854 0.258717
4 2 0.253786 0.248359 -0.00531392
5 1 0.119055 0.130589 0.129935
6 1 0.369308 0.122315 0.367772
7 1 0.121447 0.371665 0.380808
8 1 0.374104 0.376491 0.121887
9 2 0.507277 0.00865541 -0.00222936
10 2 0.752638 0.00223348 0.245346
11 2 0.504875 0.248444 0.25532
12 2 0.759469 0.257379 -0.00651977