550
Atoms. Timestep: 0
2 0 0 0
2 2.18 0 2.18
2 0 2.18 2.18
2 2.18 2.18 0
1 1.09 1.09 1.09
1 3.27 1.09 3.27
1 1.09 3.27 3.27
1 3.27 3.27 1.09
2 4.36 0 0
2 6.54 0 2.18
2 4.36 2.18 2.18
2 6.54 2.18 0
1 5.45 1.09 1.09
1 7.63 1.09 3.27
1 5.45 3.27 3.27
1 7.63 3.27 1.09
2 8.72 0 0
2 10.9 0 2.18
2 8.72 2.18 2.18
2 10.9 2.18 0
1 9.81 1.09 1.09
1 11.99 1.09 3.27
1 9.81 3.27 3.27
1 11.99 3.27 1.09
2 13.08 0 0
2 15.26 0 2.18
2 13.08 2.18 2.18
2 15.26 2.18 0
1 14.17 1.09 1.09
1 16.35 1.09 3.27
1 14.17 3.27 3.27
1 16.35 3.27 1.09
2 17.44 0 0
2 19.62 0 2.18
2 17.44 2.18 2.18
2 19.62 2.18 0
1 18.53 1.09 1.09
1 20.71 1.09 3.27
1 18.53 3.27 3.27
1 20.71 3.27 1.09
2 0 4.36 0
2 2.18 4.36 2.18
2 0 6.54 2.18
2 2.18 6.54 0
1 1.09 5.45 1.09
1 3.27 5.45 3.27
1 1.09 7.63 3.27
1 3.27 7.63 1.09
2 4.36 4.36 0
2 6.54 4.36 2.18
2 4.36 6.54 2.18
2 6.54 6.54 0
1 5.45 5.45 1.09
1 7.63 5.45 3.27
1 5.45 7.63 3.27
1 7.63 7.63 1.09
2 8.72 4.36 0
2 10.9 4.36 2.18
2 8.72 6.54 2.18
2 10.9 6.54 0
1 9.81 5.45 1.09
1 11.99 5.45 3.27
1 9.81 7.63 3.27
1 11.99 7.63 1.09
2 13.08 4.36 0
2 15.26 4.36 2.18
2 13.08 6.54 2.18
2 15.26 6.54 0
1 14.17 5.45 1.09
1 16.35 5.45 3.27
1 14.17 7.63 3.27
1 16.35 7.63 1.09
2 17.44 4.36 0
2 19.62 4.36 2.18
2 17.44 6.54 2.18
2 19.62 6.54 0
1 18.53 5.45 1.09
1 20.71 5.45 3.27
1 18.53 7.63 3.27
1 20.71 7.63 1.09
2 0 8.72 0
2 2.18 8.72 2.18
2 0 10.9 2.18
2 2.18 10.9 0
1 1.09 9.81 1.09
1 3.27 9.81 3.27
1 1.09 11.99 3.27
1 3.27 11.99 1.09
2 4.36 8.72 0
2 6.54 8.72 2.18
2 4.36 10.9 2.18
2 6.54 10.9 0
1 5.45 9.81 1.09
1 7.63 9.81 3.27
1 5.45 11.99 3.27
1 7.63 11.99 1.09
2 8.72 8.72 0
2 10.9 8.72 2.18
2 8.72 10.9 2.18
2 10.9 10.9 0
1 9.81 9.81 1.09
1 11.99 9.81 3.27
1 9.81 11.99 3.27
1 11.99 11.99 1.09
2 13.08 8.72 0
2 15.26 8.72 2.18
2 13.08 10.9 2.18
2 15.26 10.9 0
1 14.17 9.81 1.09
1 16.35 9.81 3.27
1 14.17 11.99 3.27
1 16.35 11.99 1.09
2 17.44 8.72 0
2 19.62 8.72 2.18
2 17.44 10.9 2.18
2 19.62 10.9 0
1 18.53 9.81 1.09
1 20.71 9.81 3.27
1 18.53 11.99 3.27
1 20.71 11.99 1.09
2 0 13.08 0
2 2.18 13.08 2.18
2 0 15.26 2.18
2 2.18 15.26 0
1 1.09 14.17 1.09
1 3.27 14.17 3.27
1 1.09 16.35 3.27
1 3.27 16.35 1.09
2 4.36 13.08 0
2 6.54 13.08 2.18
2 4.36 15.26 2.18
2 6.54 15.26 0
1 5.45 14.17 1.09
1 7.63 14.17 3.27
1 5.45 16.35 3.27
1 7.63 16.35 1.09
2 8.72 13.08 0
2 10.9 13.08 2.18
2 8.72 15.26 2.18
2 10.9 15.26 0
1 9.81 14.17 1.09
1 11.99 14.17 3.27
1 9.81 16.35 3.27
1 11.99 16.35 1.09
2 13.08 13.08 0
2 15.26 13.08 2.18
2 13.08 15.26 2.18
2 15.26 15.26 0
1 14.17 14.17 1.09
1 16.35 14.17 3.27
1 14.17 16.35 3.27
1 16.35 16.35 1.09
2 17.44 13.08 0
2 19.62 13.08 2.18
2 17.44 15.26 2.18
2 19.62 15.26 0
1 18.53 14.17 1.09
1 20.71 14.17 3.27
1 18.53 16.35 3.27
1 20.71 16.35 1.09
2 0 17.44 0
2 2.18 17.44 2.18
2 0 19.62 2.18
2 2.18 19.62 0
1 1.09 18.53 1.09
1 3.27 18.53 3.27
1 1.09 20.71 3.27
1 3.27 20.71 1.09
2 4.36 17.44 0
2 6.54 17.44 2.18
2 4.36 19.62 2.18
2 6.54 19.62 0
1 5.45 18.53 1.09
1 7.63 18.53 3.27
1 5.45 20.71 3.27
1 7.63 20.71 1.09
2 8.72 17.44 0
2 10.9 17.44 2.18
2 8.72 19.62 2.18
2 10.9 19.62 0
1 9.81 18.53 1.09
1 11.99 18.53 3.27
1 9.81 20.71 3.27
1 11.99 20.71 1.09
2 13.08 17.44 0
2 15.26 17.44 2.18
2 13.08 19.62 2.18
2 15.26 19.62 0
1 14.17 18.53 1.09
1 16.35 18.53 3.27
1 14.17 20.71 3.27
1 16.35 20.71 1.09
2 17.44 17.44 0
2 19.62 17.44 2.18
2 17.44 19.62 2.18
2 19.62 19.62 0
1 18.53 18.53 1.09
1 20.71 18.53 3.27
1 18.53 20.71 3.27
1 20.71 20.71 1.09
2 0 0 4.36
2 2.18 0 6.54
2 0 2.18 6.54
2 2.18 2.18 4.36
1 1.09 1.09 5.45
1 3.27 1.09 7.63
1 1.09 3.27 7.63
1 3.27 3.27 5.45
2 4.36 0 4.36
2 6.54 0 6.54
2 4.36 2.18 6.54
2 6.54 2.18 4.36
1 5.45 1.09 5.45
1 7.63 1.09 7.63
1 5.45 3.27 7.63
1 7.63 3.27 5.45
2 8.72 0 4.36
2 10.9 0 6.54
2 8.72 2.18 6.54
2 10.9 2.18 4.36
1 9.81 1.09 5.45
1 11.99 1.09 7.63
1 9.81 3.27 7.63
1 11.99 3.27 5.45
2 13.08 0 4.36
2 15.26 0 6.54
2 13.08 2.18 6.54
2 15.26 2.18 4.36
1 14.17 1.09 5.45
1 16.35 1.09 7.63
1 14.17 3.27 7.63
1 16.35 3.27 5.45
2 17.44 0 4.36
2 19.62 0 6.54
2 17.44 2.18 6.54
2 19.62 2.18 4.36
1 18.53 1.09 5.45
1 20.71 1.09 7.63
1 18.53 3.27 7.63
1 20.71 3.27 5.45
2 0 4.36 4.36
2 2.18 4.36 6.54
2 0 6.54 6.54
2 2.18 6.54 4.36
1 1.09 5.45 5.45
1 3.27 5.45 7.63
1 1.09 7.63 7.63
1 3.27 7.63 5.45
2 4.36 4.36 4.36
2 6.54 4.36 6.54
2 4.36 6.54 6.54
2 6.54 6.54 4.36
1 5.45 5.45 5.45
1 7.63 5.45 7.63
1 5.45 7.63 7.63
1 7.63 7.63 5.45
2 8.72 4.36 4.36
2 10.9 4.36 6.54
2 8.72 6.54 6.54
2 10.9 6.54 4.36
1 9.81 5.45 5.45
1 11.99 5.45 7.63
1 9.81 7.63 7.63
1 11.99 7.63 5.45
2 13.08 4.36 4.36
2 15.26 4.36 6.54
2 13.08 6.54 6.54
2 15.26 6.54 4.36
1 14.17 5.45 5.45
1 16.35 5.45 7.63
1 14.17 7.63 7.63
1 16.35 7.63 5.45
2 17.44 4.36 4.36
2 19.62 4.36 6.54
2 17.44 6.54 6.54
2 19.62 6.54 4.36
1 18.53 5.45 5.45
1 20.71 5.45 7.63
1 18.53 7.63 7.63
1 20.71 7.63 5.45
2 0 8.72 4.36
2 2.18 8.72 6.54
2 0 10.9 6.54
2 2.18 10.9 4.36
1 1.09 9.81 5.45
1 3.27 9.81 7.63
1 1.09 11.99 7.63
1 3.27 11.99 5.45
2 4.36 8.72 4.36
2 6.54 8.72 6.54
2 4.36 10.9 6.54
2 6.54 10.9 4.36
1 5.45 9.81 5.45
1 7.63 9.81 7.63
1 5.45 11.99 7.63
1 7.63 11.99 5.45
2 8.72 8.72 4.36
2 10.9 8.72 6.54
2 8.72 10.9 6.54
2 10.9 10.9 4.36
1 9.81 9.81 5.45
1 11.99 9.81 7.63
1 9.81 11.99 7.63
1 11.99 11.99 5.45
2 13.08 8.72 4.36
2 15.26 8.72 6.54
2 13.08 10.9 6.54
2 15.26 10.9 4.36
1 14.17 9.81 5.45
1 16.35 9.81 7.63
1 14.17 11.99 7.63
1 16.35 11.99 5.45
2 17.44 8.72 4.36
2 19.62 8.72 6.54
2 17.44 10.9 6.54
2 19.62 10.9 4.36
1 18.53 9.81 5.45
1 20.71 9.81 7.63
1 18.53 11.99 7.63
1 20.71 11.99 5.45
2 0 13.08 4.36
2 2.18 13.08 6.54
2 0 15.26 6.54
2 2.18 15.26 4.36
1 1.09 14.17 5.45
1 3.27 14.17 7.63
1 1.09 16.35 7.63
1 3.27 16.35 5.45
2 4.36 13.08 4.36
2 6.54 13.08 6.54
2 4.36 15.26 6.54
2 6.54 15.26 4.36
1 5.45 14.17 5.45
1 7.63 14.17 7.63
1 5.45 16.35 7.63
1 7.63 16.35 5.45
2 8.72 13.08 4.36
2 10.9 13.08 6.54
2 8.72 15.26 6.54
2 10.9 15.26 4.36
1 9.81 14.17 5.45
1 11.99 14.17 7.63
1 9.81 16.35 7.63
1 11.99 16.35 5.45
2 13.08 13.08 4.36
2 15.26 13.08 6.54
2 13.08 15.26 6.54
2 15.26 15.26 4.36
1 14.17 14.17 5.45
1 16.35 14.17 7.63
1 14.17 16.35 7.63
1 16.35 16.35 5.45
2 17.44 13.08 4.36
2 19.62 13.08 6.54
2 17.44 15.26 6.54
2 19.62 15.26 4.36
1 18.53 14.17 5.45
1 20.71 14.17 7.63
1 18.53 16.35 7.63
1 20.71 16.35 5.45
2 0 17.44 4.36
2 2.18 17.44 6.54
2 0 19.62 6.54
2 2.18 19.62 4.36
1 1.09 18.53 5.45
1 3.27 18.53 7.63
1 1.09 20.71 7.63
1 3.27 20.71 5.45
2 4.36 17.44 4.36
2 6.54 17.44 6.54
2 4.36 19.62 6.54
2 6.54 19.62 4.36
1 5.45 18.53 5.45
1 7.63 18.53 7.63
1 5.45 20.71 7.63
1 7.63 20.71 5.45
2 8.72 17.44 4.36
2 10.9 17.44 6.54
2 8.72 19.62 6.54
2 10.9 19.62 4.36
1 9.81 18.53 5.45
1 11.99 18.53 7.63
1 9.81 20.71 7.63
1 11.99 20.71 5.45
2 13.08 17.44 4.36
2 15.26 17.44 6.54
2 13.08 19.62 6.54
2 15.26 19.62 4.36
1 14.17 18.53 5.45
1 16.35 18.53 7.63
1 14.17 20.71 7.63
1 16.35 20.71 5.45
2 17.44 17.44 4.36
2 19.62 17.44 6.54
2 17.44 19.62 6.54
2 19.62 19.62 4.36
1 18.53 18.53 5.45
1 20.71 18.53 7.63
1 18.53 20.71 7.63
1 20.71 20.71 5.45
2 0 0 8.72
2 2.18 0 10.9
2 0 2.18 10.9
2 2.18 2.18 8.72
1 1.09 1.09 9.81
1 3.27 3.27 9.81
2 4.36 0 8.72
2 6.54 0 10.9
2 4.36 2.18 10.9
2 6.54 2.18 8.72
1 5.45 1.09 9.81
1 7.63 3.27 9.81
2 8.72 0 8.72
2 10.9 0 10.9
2 8.72 2.18 10.9
2 10.9 2.18 8.72
1 9.81 1.09 9.81
1 11.99 3.27 9.81
2 13.08 0 8.72
2 15.26 0 10.9
2 13.08 2.18 10.9
2 15.26 2.18 8.72
1 14.17 1.09 9.81
1 16.35 3.27 9.81
2 17.44 0 8.72
2 19.62 0 10.9
2 17.44 2.18 10.9
2 19.62 2.18 8.72
1 18.53 1.09 9.81
1 20.71 3.27 9.81
2 0 4.36 8.72
2 2.18 4.36 10.9
2 0 6.54 10.9
2 2.18 6.54 8.72
1 1.09 5.45 9.81
1 3.27 7.63 9.81
2 4.36 4.36 8.72
2 6.54 4.36 10.9
2 4.36 6.54 10.9
2 6.54 6.54 8.72
1 5.45 5.45 9.81
1 7.63 7.63 9.81
2 8.72 4.36 8.72
2 10.9 4.36 10.9
2 8.72 6.54 10.9
2 10.9 6.54 8.72
1 9.81 5.45 9.81
1 11.99 7.63 9.81
2 13.08 4.36 8.72
2 15.26 4.36 10.9
2 13.08 6.54 10.9
2 15.26 6.54 8.72
1 14.17 5.45 9.81
1 16.35 7.63 9.81
2 17.44 4.36 8.72
2 19.62 4.36 10.9
2 17.44 6.54 10.9
2 19.62 6.54 8.72
1 18.53 5.45 9.81
1 20.71 7.63 9.81
2 0 8.72 8.72
2 2.18 8.72 10.9
2 0 10.9 10.9
2 2.18 10.9 8.72
1 1.09 9.81 9.81
1 3.27 11.99 9.81
2 4.36 8.72 8.72
2 6.54 8.72 10.9
2 4.36 10.9 10.9
2 6.54 10.9 8.72
1 5.45 9.81 9.81
1 7.63 11.99 9.81
2 8.72 8.72 8.72
2 10.9 8.72 10.9
2 8.72 10.9 10.9
2 10.9 10.9 8.72
1 9.81 9.81 9.81
1 11.99 11.99 9.81
2 13.08 8.72 8.72
2 15.26 8.72 10.9
2 13.08 10.9 10.9
2 15.26 10.9 8.72
1 14.17 9.81 9.81
1 16.35 11.99 9.81
2 17.44 8.72 8.72
2 19.62 8.72 10.9
2 17.44 10.9 10.9
2 19.62 10.9 8.72
1 18.53 9.81 9.81
1 20.71 11.99 9.81
2 0 13.08 8.72
2 2.18 13.08 10.9
2 0 15.26 10.9
2 2.18 15.26 8.72
1 1.09 14.17 9.81
1 3.27 16.35 9.81
2 4.36 13.08 8.72
2 6.54 13.08 10.9
2 4.36 15.26 10.9
2 6.54 15.26 8.72
1 5.45 14.17 9.81
1 7.63 16.35 9.81
2 8.72 13.08 8.72
2 10.9 13.08 10.9
2 8.72 15.26 10.9
2 10.9 15.26 8.72
1 9.81 14.17 9.81
1 11.99 16.35 9.81
2 13.08 13.08 8.72
2 15.26 13.08 10.9
2 13.08 15.26 10.9
2 15.26 15.26 8.72
1 14.17 14.17 9.81
1 16.35 16.35 9.81
2 17.44 13.08 8.72
2 19.62 13.08 10.9
2 17.44 15.26 10.9
2 19.62 15.26 8.72
1 18.53 14.17 9.81
1 20.71 16.35 9.81
2 0 17.44 8.72
2 2.18 17.44 10.9
2 0 19.62 10.9
2 2.18 19.62 8.72
1 1.09 18.53 9.81
1 3.27 20.71 9.81
2 4.36 17.44 8.72
2 6.54 17.44 10.9
2 4.36 19.62 10.9
2 6.54 19.62 8.72
1 5.45 18.53 9.81
1 7.63 20.71 9.81
2 8.72 17.44 8.72
2 10.9 17.44 10.9
2 8.72 19.62 10.9
2 10.9 19.62 8.72
1 9.81 18.53 9.81
1 11.99 20.71 9.81
2 13.08 17.44 8.72
2 15.26 17.44 10.9
2 13.08 19.62 10.9
2 15.26 19.62 8.72
1 14.17 18.53 9.81
1 16.35 20.71 9.81
2 17.44 17.44 8.72
2 19.62 17.44 10.9
2 17.44 19.62 10.9
2 19.62 19.62 8.72
1 18.53 18.53 9.81
1 20.71 20.71 9.81
550
Atoms. Timestep: 10
2 21.7947 0.00433985 0.00622102
2 2.17389 21.7935 2.17415
2 0.00350993 2.18104 2.18553
2 2.18375 2.17772 43.5963
1 1.08533 1.09582 1.09937
1 3.26295 1.08667 3.2607
1 1.08531 3.26325 3.27741
1 3.26417 3.2783 1.08439
2 4.36569 0.0056702 43.5978
2 6.54172 8.3912e-05 2.17608
2 4.36542 2.17775 2.18642
2 6.54594 2.18561 43.5944
1 5.45854 1.09773 1.08675
1 7.62208 1.09384 3.27174
1 5.44484 3.26345 3.28008
1 7.62614 3.27055 1.09385
2 8.72139 21.7999 43.5987
2 10.9013 21.7976 2.18304
2 8.71508 2.18033 2.17423
2 10.9009 2.17562 0.00250947
1 9.81891 1.08659 1.09215
1 11.9892 1.08181 3.26287
1 9.81109 3.26182 3.26301
1 11.9887 3.26447 1.08431
2 13.081 21.7943 0.00337371
2 15.2611 21.7986 2.17727
2 13.0852 2.17564 2.17881
2 15.2618 2.18502 0.00665657
1 14.1702 1.09421 1.09349
1 16.3442 1.08604 3.26855
1 14.1759 3.27078 3.26571
1 16.3473 3.26585 1.09251
2 17.4352 21.7993 0.00324584
2 19.614 21.7936 2.17928
2 17.4418 2.17934 2.18236
2 19.6144 2.18254 43.5944
1 18.5357 1.09469 1.09826
1 20.7135 1.08665 3.26312
1 18.5353 3.27955 3.26665
1 20.7084 3.26176 1.08208
2 21.7971 4.36376 43.5941
2 2.17935 4.36371 2.18302
2 21.7979 6.54254 2.17559
2 2.17375 6.5452 0.00249077
1 1.09777 5.44427 1.09733
1 3.2694 5.44596 3.26596
1 1.09642 7.63257 3.27791
1 3.27044 7.63243 1.09831
2 4.36531 4.35629 0.0038079
2 6.5423 4.35993 2.18287
2 4.35943 6.54281 2.18468
2 6.53345 6.53514 43.598
1 5.44521 5.45449 1.08105
1 7.63878 5.45205 3.27111
1 5.44163 7.62239 3.26588
1 7.62315 7.62208 1.0846
2 8.72297 4.35747 0.000613954
2 10.8978 4.36497 2.17797
2 8.71711 6.53479 2.18657
2 10.9056 6.53367 0.00385096
1 9.81756 5.45285 1.08805
1 11.9904 5.45135 3.26486
1 9.81137 7.63273 3.27612
1 11.9863 7.63462 1.0801
2 13.0848 4.36383 0.00543957
2 15.2589 4.36165 2.17558
2 13.0804 6.54506 2.17966
2 15.2632 6.53743 43.597
1 14.1785 5.45212 1.09006
1 16.354 5.4578 3.26365
1 14.1714 7.62398 3.26558
1 16.3547 7.62109 1.09173
2 17.4452 4.3557 43.6001
2 19.6226 4.35404 2.18625
2 17.4429 6.54412 2.1761
2 19.6135 6.5399 0.00554088
1 18.5301 5.45686 1.08607
1 20.7056 5.44071 3.2673
1 18.5308 7.63354 3.27494
1 20.7031 7.63427 1.08905
2 21.7956 8.71876 0.00268385
2 2.17464 8.72489 2.17614
2 21.7947 10.8966 2.17846
2 2.18456 10.8979 0.00494268
1 1.08055 9.81898 1.08455
1 3.27601 9.80774 3.27083
1 1.09921 11.992 3.27258
1 3.268 11.984 1.08061
2 4.36186 8.71417 43.5938
2 6.53651 8.7225 2.17378
2 4.35883 10.8992 2.18326
2 6.53943 10.9042 43.5992
1 5.44816 9.81628 1.08493
1 7.62426 9.81049 3.27407
1 5.44127 11.9808 3.2771
1 7.63039 11.9906 1.08127
2 8.7196 8.72107 43.5942
2 10.8959 8.71442 2.18333
2 8.72372 10.9027 2.18171
2 10.9012 10.8961 43.5994
1 9.80232 9.80085 1.08426
1 11.9939 9.81515 3.27981
1 9.80821 11.9862 3.26919
1 11.9952 11.9987 1.09954
2 13.0739 8.72287 0.00336524
2 15.2588 8.72511 2.17393
2 13.0779 10.8997 2.18357
2 15.2552 10.9054 43.5952
1 14.1735 9.81855 1.08101
1 16.3466 9.81478 3.27643
1 14.1683 11.9888 3.27615
1 16.3512 11.9988 1.0952
2 17.4449 8.71542 43.5999
2 19.6223 8.71565 2.1754
2 17.4406 10.9022 2.18506
2 19.6263 10.8974 43.5979
1 18.5332 9.80107 1.08278
1 20.7087 9.81248 3.27252
1 18.5275 11.9922 3.26737
1 20.7086 11.9882 1.08081
2 0.00596852 13.0808 43.5953
2 2.18099 13.0741 2.18441
2 21.7979 15.2628 2.18562
2 2.18496 15.2629 43.5971
1 1.08229 14.1724 1.08855
1 3.26592 14.1622 3.26609
1 1.09984 16.3572 3.26958
1 3.26315 16.3514 1.08835
2 4.3561 13.0801 43.5978
2 6.54097 13.0764 2.17682
2 4.35389 15.2633 2.18238
2 6.53722 15.2559 0.00184119
1 5.44517 14.1792 1.0843
1 7.6274 14.1664 3.27216
1 5.4402 16.351 3.27557
1 7.6233 16.3536 1.08412
2 8.72562 13.0738 43.5989
2 10.8984 13.0767 2.17669
2 8.71814 15.2588 2.1865
2 10.9011 15.2647 0.0034568
1 9.81381 14.1698 1.09293
1 11.9851 14.1783 3.272
1 9.81923 16.3561 3.27297
1 11.9929 16.3595 1.08673
2 13.0804 13.0743 0.00484384
2 15.2595 13.0825 2.17867
2 13.0848 15.2632 2.18475
2 15.2593 15.258 43.5965
1 14.1666 14.1669 1.0811
1 16.3453 14.1605 3.26765
1 14.1794 16.3527 3.26171
1 16.3496 16.3447 1.08691
2 17.4353 13.0803 43.5951
2 19.619 13.0743 2.18337
2 17.4389 15.2641 2.17351
2 19.6148 15.2585 0.00216646
1 18.5213 14.1608 1.08614
1 20.7081 14.1609 3.26811
1 18.5218 16.3581 3.27094
1 20.7026 16.3439 1.0991
2 21.7974 17.446 0.00490503
2 2.18606 17.4393 2.18276
2 0.00141307 19.6155 2.18634
2 2.18282 19.6258 0.000462796
1 1.09301 18.5232 1.08619
1 3.27922 18.5281 3.26974
1 1.08643 20.7123 3.26114
1 3.27494 20.7033 1.09811
2 4.35906 17.4383 0.0064698
2 6.53616 17.4346 2.17757
2 4.35929 19.6179 2.17622
2 6.54407 19.6217 0.000640574
1 5.44642 18.53 1.08571
1 7.63718 18.5391 3.26432
1 5.45304 20.7164 3.26497
1 7.62578 20.7052 1.08355
2 8.71346 17.4428 0.00609504
2 10.9024 17.4433 2.18548
2 8.71459 19.6193 2.17727
2 10.9055 19.6218 43.5967
1 9.80188 18.5301 1.08474
1 11.9981 18.5385 3.27259
1 9.81467 20.7058 3.26827
1 11.9909 20.7159 1.09813
2 13.0859 17.4407 43.5959
2 15.2656 17.4358 2.18493
2 13.0852 19.6165 2.18262
2 15.2585 19.6203 43.5959
1 14.1769 18.5256 1.0981
1 16.3447 18.5317 3.27348
1 14.1619 20.7052 3.2785
1 16.3587 20.7001 1.0951
2 17.4432 17.4416 0.002035
2 19.6247 17.4365 2.18119
2 17.4464 19.618 2.17489
2 19.6228 19.6244 0.00585877
1 18.5383 18.5216 1.09278
1 20.7157 18.5303 3.27473
1 18.5391 20.7181 3.27892
1 20.7174 20.7146 1.08197
2 0.00305119 21.7978 4.36238
2 2.17893 21.7943 6.544
2 21.7981 2.17682 6.53782
2 2.18151 2.18236 4.35697
1 1.08436 1.09305 5.447
1 3.27866 1.0991 7.63089
1 1.09218 3.27915 7.62723
1 3.26009 3.27173 5.45472
2 4.3661 0.000993837 4.36574
2 6.53549 0.00110624 6.54207
2 4.35347 2.17916 6.54645
2 6.53616 2.18023 4.36007
1 5.45604 1.08919 5.45544
1 7.63763 1.08702 7.63842
1 5.44764 3.26968 7.63185
1 7.6239 3.2648 5.44598
2 8.72031 21.7948 4.35828
2 10.9011 21.7942 6.54544
2 8.71592 2.18341 6.53685
2 10.9012 2.18012 4.35526
1 9.80459 1.08002 5.44854
1 11.9899 1.08912 7.62081
1 9.80768 3.2757 7.62711
1 11.9814 3.2638 5.44702
2 13.0802 21.7981 4.35977
2 15.2556 0.00593854 6.53527
2 13.0809 2.18083 6.53607
2 15.2578 2.1749 4.36476
1 14.1639 1.09706 5.45952
1 16.3443 1.09517 7.62425
1 14.1627 3.27439 7.62295
1 16.3496 3.26558 5.44947
2 17.4427 0.00287082 4.36409
2 19.6154 0.000676035 6.53393
2 17.4377 2.1758 6.54432
2 19.6136 2.18351 4.36113
1 18.5337 1.09597 5.44421
1 20.7175 1.08647 7.63628
1 18.5256 3.26274 7.63504
1 20.7067 3.26078 5.44324
2 0.0023749 4.36274 4.36426
2 2.17446 4.36425 6.53891
2 21.7941 6.53541 6.54559
2 2.18009 6.54232 4.3562
1 1.08736 5.45759 5.44195
1 3.27793 5.45486 7.62095
1 1.09175 7.63683 7.62331
1 3.27032 7.62002 5.44874
2 4.36546 4.36229 4.36378
2 6.54116 4.36395 6.54596
2 4.35934 6.53504 6.53655
2 6.53956 6.53825 4.3635
1 5.45389 5.45625 5.44785
1 7.62013 5.4496 7.62075
1 5.44856 7.63677 7.62845
1 7.63598 7.62503 5.45676
2 8.7253 4.35611 4.35952
2 10.9059 4.36461 6.54192
2 8.71591 6.5376 6.54145
2 10.9036 6.53977 4.36196
1 9.80813 5.44012 5.45188
1 11.9902 5.45419 7.63227
1 9.80666 7.63854 7.62406
1 11.9846 7.62596 5.44925
2 13.0862 4.3609 4.35517
2 15.2605 4.35628 6.5398
2 13.0839 6.54229 6.53797
2 15.2632 6.54284 4.35363
1 14.1782 5.45618 5.44658
1 16.357 5.44787 7.63437
1 14.1674 7.62796 7.62394
1 16.3456 7.63304 5.45968
2 17.4452 4.35413 4.35681
2 19.6209 4.35796 6.54659
2 17.4405 6.53644 6.54541
2 19.618 6.53873 4.35457
1 18.5288 5.44113 5.4456
1 20.715 5.45212 7.63187
1 18.5201 7.62953 7.63726
1 20.7009 7.62868 5.44301
2 0.00495342 8.71814 4.35433
2 2.1797 8.72016 6.53807
2 21.7998 10.8966 6.53511
2 2.1787 10.9037 4.36442
1 1.09978 9.80712 5.44887
1 3.26986 9.81181 7.62827
1 1.0864 11.9853 7.63342
1 3.2791 11.9799 5.45582
2 4.35576 8.72091 4.35637
2 6.54595 8.71565 6.53629
2 4.35655 10.8972 6.53942
2 6.53888 10.8989 4.36351
1 5.44215 9.80292 5.45751
1 7.62924 9.814 7.63283
1 5.45686 11.9956 7.63163
1 7.62439 11.9926 5.45657
2 8.7179 8.71416 4.35748
2 10.8949 8.72137 6.54491
2 8.71566 10.9063 6.53697
2 10.8945 10.9007 4.35953
1 9.80764 9.80021 5.4471
1 11.9952 9.81759 7.62688
1 9.80272 11.9991 7.62884
1 11.9954 11.9997 5.4529
2 13.0765 8.72098 4.35748
2 15.263 8.71851 6.53858
2 13.0814 10.8983 6.53572
2 15.261 10.9039 4.3568
1 14.1607 9.8087 5.44695
1 16.3561 9.80969 7.62886
1 14.1618 11.9989 7.63243
1 16.3595 11.9805 5.45506
2 17.4402 8.71493 4.36379
2 19.6224 8.71645 6.5404
2 17.4356 10.8987 6.53648
2 19.6216 10.9047 4.36211
1 18.5318 9.80751 5.4562
1 20.7092 9.81123 7.62526
1 18.5286 11.9838 7.63358
1 20.7145 11.998 5.44398
2 21.7998 13.0738 4.35649
2 2.17407 13.086 6.53793
2 21.7959 15.2602 6.54116
2 2.17752 15.2605 4.35782
1 1.09468 14.1773 5.44425
1 3.27555 14.1652 7.62629
1 1.08766 16.3432 7.63884
1 3.26088 16.3579 5.45469
2 4.35507 13.0741 4.35753
2 6.5395 13.0785 6.53745
2 4.36148 15.2541 6.54007
2 6.53342 15.2627 4.3585
1 5.4507 14.1698 5.44834
1 7.63314 14.1788 7.63102
1 5.45775 16.3578 7.63262
1 7.63637 16.3543 5.44774
2 8.72253 13.0856 4.35991
2 10.9 13.0832 6.54665
2 8.71881 15.2555 6.54003
2 10.8938 15.266 4.35857
1 9.806 14.1672 5.45895
1 11.9999 14.1797 7.62599
1 9.80055 16.344 7.62929
1 11.9869 16.3437 5.45823
2 13.0771 13.0798 4.359
2 15.2652 13.079 6.54074
2 13.0817 15.2599 6.54289
2 15.2658 15.2625 4.36652
1 14.1768 14.166 5.44395
1 16.3578 14.1603 7.63952
1 14.178 16.3586 7.63186
1 16.3586 16.3502 5.45307
2 17.4348 13.0849 4.36353
2 19.6217 13.0788 6.53395
2 17.4337 15.2584 6.54581
2 19.626 15.2544 4.36158
1 18.5246 14.1725 5.45608
1 20.7181 14.1797 7.63789
1 18.5371 16.3584 7.639
1 20.7098 16.3403 5.44292
2 21.7995 17.4356 4.36139
2 2.1753 17.445 6.54109
2 21.7969 19.6142 6.53645
2 2.17434 19.6247 4.36213
1 1.09073 18.5366 5.4566
1 3.27948 18.5244 7.62227
1 1.0947 20.7007 7.62448
1 3.26043 20.7148 5.44004
2 4.3567 17.4355 4.35946
2 6.5394 17.4385 6.54481
2 4.36416 19.6263 6.54593
2 6.53585 19.6199 4.36461
1 5.44676 18.5294 5.44208
1 7.6262 18.5378 7.63755
1 5.44277 20.7158 7.62051
1 7.637 20.7055 5.45358
2 8.71823 17.4396 4.36536
2 10.9059 17.4384 6.53457
2 8.72195 19.6216 6.54425
2 10.8975 19.6223 4.36488
1 9.80653 18.5278 5.44041
1 11.9978 18.5356 7.636
1 9.81117 20.7175 7.63263
1 11.983 20.7129 5.45003
2 13.0787 17.4337 4.36113
2 15.2646 17.4367 6.53594
2 13.0825 19.6265 6.54109
2 15.2622 19.623 4.36371
1 14.1711 18.5341 5.4465
1 16.3469 18.5333 7.63044
1 14.1771 20.7168 7.63676
1 16.3576 20.7077 5.45718
2 17.4344 17.4443 4.35674
2 19.6201 17.4446 6.54016
2 17.4426 19.6246 6.54377
2 19.6164 19.6249 4.35731
1 18.5248 18.5214 5.44723
1 20.7063 18.5395 7.63107
1 18.5277 20.7116 7.63277
1 20.7011 20.7189 5.4589
2 0.00557156 0.00464881 8.71897
2 2.17798 21.7973 10.8939
2 0.000312 2.17672 10.9019
2 2.18539 2.18177 8.71407
1 1.09729 1.09587 9.81221
1 3.26956 3.26559 9.81637
2 4.36145 0.00579891 8.71684
2 6.54299 21.799 10.8967
2 4.36078 2.18589 10.8971
2 6.53532 2.18533 8.72215
1 5.44703 1.09767 9.80278
1 7.62686 3.26114 9.82038
2 8.72441 0.006161 8.71386
2 10.9022 21.8 10.896
2 8.71663 2.18555 10.8962
2 10.8947 2.18259 8.71876
1 9.80111 1.08136 9.80621
1 11.9842 3.2697 9.81576
2 13.0786 21.7935 8.7235
2 15.2579 0.00575118 10.9029
2 13.0771 2.17929 10.902
2 15.2602 2.18058 8.71406
1 14.1681 1.08376 9.81851
1 16.3539 3.27792 9.81486
2 17.442 21.7993 8.71725
2 19.6159 0.00581261 10.898
2 17.4393 2.18045 10.8993
2 19.6245 2.17393 8.71644
1 18.5365 1.08497 9.81571
1 20.7099 3.27447 9.81465
2 0.00389991 4.36159 8.72226
2 2.17867 4.35499 10.9024
2 21.7943 6.53728 10.8953
2 2.1799 6.53437 8.72183
1 1.08827 5.44872 9.80562
1 3.27974 7.6233 9.81029
2 4.36461 4.36533 8.72665
2 6.54386 4.35671 10.8941
2 4.36448 6.54204 10.8941
2 6.53563 6.53528 8.72614
1 5.44155 5.447 9.80784
1 7.62006 7.62079 9.81792
2 8.72302 4.36202 8.71405
2 10.895 4.36097 10.9029
2 8.72319 6.54213 10.8976
2 10.8946 6.53929 8.71923
1 9.81941 5.45196 9.80134
1 11.9873 7.62315 9.80172
2 13.0848 4.35359 8.7138
2 15.2655 4.35407 10.9017
2 13.0829 6.53827 10.8977
2 15.2647 6.5383 8.71836
1 14.1672 5.44892 9.81448
1 16.3575 7.62267 9.80343
2 17.4408 4.3567 8.72544
2 19.6182 4.35806 10.8982
2 17.4366 6.54407 10.9021
2 19.6224 6.53497 8.72116
1 18.529 5.45521 9.81067
1 20.7149 7.63354 9.81329
2 0.00461117 8.71895 8.72351
2 2.17764 8.71525 10.895
2 21.7972 10.905 10.9029
2 2.17798 10.9024 8.7144
1 1.08548 9.80258 9.80527
1 3.27489 11.9846 9.81595
2 4.36014 8.71767 8.72427
2 6.53697 8.71348 10.8951
2 4.36388 10.9003 10.8997
2 6.53467 10.9056 8.71717
1 5.45208 9.81919 9.81995
1 7.62277 11.9831 9.8189
2 8.72498 8.72586 8.71827
2 10.8952 8.71991 10.897
2 8.72606 10.9044 10.8947
2 10.8976 10.8991 8.72287
1 9.81153 9.80052 9.81155
1 11.9803 11.9855 9.81074
2 13.0835 8.72143 8.71541
2 15.2575 8.72558 10.899
2 13.0738 10.9017 10.9054
2 15.2559 10.9012 8.72176
1 14.1713 9.81691 9.81631
1 16.3402 11.9948 9.81389
2 17.4394 8.72133 8.72667
2 19.6192 8.72545 10.8965
2 17.4439 10.9058 10.8984
2 19.6135 10.9004 8.7183
1 18.5339 9.80153 9.82021
1 20.7131 11.9923 9.81336
2 21.7988 13.0818 8.71519
2 2.17767 13.0793 10.8955
2 0.000225806 15.2556 10.8938
2 2.18636 15.2603 8.71874
1 1.09645 14.1703 9.80907
1 3.27109 16.344 9.81641
2 4.36242 13.0865 8.72486
2 6.53913 13.0748 10.8955
2 4.36167 15.2641 10.8934
2 6.53524 15.2623 8.71542
1 5.44997 14.1784 9.8018
1 7.62314 16.3521 9.81945
2 8.72586 13.0837 8.72044
2 10.896 13.0845 10.9005
2 8.71387 15.2652 10.9034
2 10.9041 15.2587 8.72126
1 9.80537 14.1709 9.81919
1 11.9847 16.3471 9.81732
2 13.083 13.0858 8.72487
2 15.2597 13.0743 10.8932
2 13.0773 15.2628 10.9003
2 15.261 15.2543 8.72625
1 14.1724 14.1644 9.80086
1 16.3522 16.3585 9.81453
2 17.4394 13.0752 8.72637
2 19.6195 13.0748 10.905
2 17.4404 15.2648 10.898
2 19.6196 15.256 8.71531
1 18.5237 14.167 9.81298
1 20.7194 16.3462 9.80421
2 0.00593232 17.445 8.71683
2 2.1793 17.4432 10.8973
2 21.7972 19.6214 10.9015
2 2.18506 19.6134 8.72015
1 1.0928 18.5244 9.80262
1 3.27544 20.7107 9.80857
2 4.36281 17.4375 8.71806
2 6.53752 17.4402 10.9047
2 4.3548 19.6157 10.8952
2 6.54139 19.618 8.7147
1 5.44255 18.5339 9.81929
1 7.62858 20.7134 9.80922
2 8.72448 17.4439 8.71708
2 10.9001 17.4435 10.8995
2 8.72392 19.6194 10.8977
2 10.8972 19.6165 8.72096
1 9.81871 18.5323 9.81518
1 11.9874 20.7053 9.80146
2 13.0827 17.4444 8.7242
2 15.2587 17.4426 10.8944
2 13.0861 19.6196 10.9057
2 15.2649 19.6149 8.71532
1 14.162 18.5264 9.8199
1 16.3529 20.7119 9.80515
2 17.4337 17.4343 8.71575
2 19.6208 17.4374 10.9029
2 17.4421 19.6258 10.8978
2 19.6265 19.6208 8.72576
1 18.5206 18.5217 9.81932
1 20.7154 20.7104 9.80146
552
Atoms. Timestep: 20
2 21.7894 0.00872832 0.0128908
2 2.16783 21.787 2.16833
2 0.00695998 2.18208 2.191
2 2.18746 2.17544 43.5931
1 1.08077 1.10153 1.10766
1 3.25606 1.08333 3.25161
1 1.08076 3.25674 3.28469
1 3.25851 3.28638 1.07813
2 4.37135 0.011308 43.5961
2 6.54344 0.000186165 2.17215
2 4.37074 2.17554 2.19274
2 6.55186 2.19122 43.5893
1 5.467 1.10538 1.08266
1 7.61433 1.09756 3.27341
1 5.43982 3.25708 3.29
1 7.62238 3.27114 1.09672
2 8.72279 21.7998 43.5979
2 10.9026 21.7952 2.18606
2 8.7102 2.18061 2.16851
2 10.9018 2.17124 0.00546891
1 9.82759 1.08319 1.09341
1 11.9886 1.07378 3.2559
1 9.81216 3.25382 3.25607
1 11.9874 3.25908 1.07791
2 13.082 21.7887 0.0072371
2 15.2622 21.7971 2.17459
2 13.0903 2.17132 2.17764
2 15.2636 2.19 0.0137623
1 14.1705 1.09826 1.09601
1 16.3385 1.08214 3.26719
1 14.1817 3.27149 3.26148
1 16.3447 3.26182 1.09416
2 17.4305 21.7985 0.00699419
2 19.6082 21.7872 2.17855
2 17.4436 2.17871 2.18475
2 19.6089 2.18505 43.5892
1 18.5412 1.09924 1.10547
1 20.7168 1.08334 3.25644
1 18.5405 3.2888 3.26338
1 20.7068 3.2537 1.07346
2 21.7941 4.36749 43.5888
2 2.17869 4.36732 2.18604
2 21.7959 6.54505 2.17126
2 2.16754 6.55038 0.00548959
1 1.10529 5.43871 1.10363
1 3.26886 5.44204 3.26206
1 1.1027 7.6351 3.28551
1 3.27083 7.63484 1.10559
2 4.37058 4.3526 0.00805577
2 6.54454 4.35988 2.18575
2 4.35883 6.54554 2.18929
2 6.52691 6.5303 43.5965
1 5.4405 5.45887 1.07152
1 7.64737 5.45398 3.27231
1 5.43349 7.615 3.26189
1 7.61643 7.61428 1.07839
2 8.72595 4.35497 0.00173029
2 10.8956 4.36985 2.17594
2 8.7143 6.52966 2.19305
2 10.9112 6.52737 0.0081349
1 9.82491 5.45562 1.08532
1 11.9909 5.45271 3.2598
1 9.81267 7.63528 3.28215
1 11.9826 7.63913 1.0696
2 13.0895 4.36764 0.0113386
2 15.2578 4.36331 2.1712
2 13.0809 6.55008 2.17924
2 15.2664 6.53487 43.5946
1 14.1869 5.45427 1.08926
1 16.3579 5.46541 3.25738
1 14.1727 7.61823 3.26119
1 16.3594 7.61243 1.0925
2 17.4504 4.35141 0.000675706
2 19.6252 4.34815 2.19235
2 17.4458 6.54822 2.17225
2 19.607 6.53984 0.0115159
1 18.5302 5.46347 1.08144
1 20.7014 5.43162 3.26465
1 18.5316 7.637 3.2797
1 20.6964 7.6384 1.08722
2 21.7913 8.71755 0.00581676
2 2.16933 8.7298 2.17233
2 21.7894 10.8933 2.17694
2 2.18906 10.8957 0.0103054
1 1.07124 9.82777 1.07833
1 3.28177 9.8056 3.27163
1 1.10817 11.9938 3.2751
1 3.26608 11.9781 1.07063
2 4.36371 8.70838 43.5881
2 6.53301 8.72495 2.1676
2 4.35766 10.8983 2.18646
2 6.53885 10.9084 43.5988
1 5.44631 9.82246 1.07902
1 7.61863 9.81096 3.27802
1 5.43273 11.9717 3.28404
1 7.63084 11.9913 1.07184
2 8.71915 8.72208 43.5889
2 10.8919 8.70891 2.18663
2 8.72735 10.9054 2.18337
2 10.9023 10.8922 43.5994
1 9.79481 9.79188 1.07781
1 11.9975 9.82016 3.28938
1 9.80645 11.9825 3.26841
1 12.0003 12.007 1.10805
2 13.0678 8.72579 0.00716933
2 15.2575 8.73019 2.1679
2 13.0758 10.8995 2.18714
2 15.2505 10.9108 43.5908
1 14.1769 9.82699 1.07131
1 16.3433 9.81944 3.28272
1 14.1666 11.9877 3.28212
1 16.3524 12.0073 1.0994
2 17.4498 8.71081 43.6002
2 19.6245 8.71136 2.17088
2 17.4412 10.9043 2.19005
2 19.6325 10.8948 43.5962
1 18.5364 9.79234 1.07486
1 20.7074 9.81486 3.27497
1 18.525 11.9944 3.26493
1 20.7072 11.9864 1.07091
2 0.0118883 13.0815 43.5911
2 2.18195 13.0682 2.1887
2 21.7959 15.2656 2.19122
2 2.18987 15.2657 43.5946
1 1.07482 14.1748 1.0863
1 3.26189 14.1545 3.26228
1 1.10948 16.3642 3.26918
1 3.25651 16.3528 1.08598
2 4.35221 13.0802 43.596
2 6.54188 13.0729 2.17365
2 4.34778 15.2665 2.18472
2 6.53445 15.2519 0.00412299
1 5.44034 14.1881 1.0779
1 7.62477 14.1628 3.27429
1 5.43054 16.3519 3.28101
1 7.61668 16.357 1.07755
2 8.73125 13.0676 43.5983
2 10.8968 13.0734 2.17346
2 8.7163 15.2577 2.19293
2 10.9022 15.2694 0.00739735
1 9.81753 14.1696 1.09496
1 11.9803 14.1864 3.27395
1 9.82817 16.3621 3.27592
1 11.9959 16.3689 1.08272
2 13.0809 13.0685 0.0101358
2 15.2589 13.085 2.17735
2 13.0895 15.2664 2.1894
2 15.2586 15.256 43.5935
1 14.1633 14.1638 1.07154
1 16.3407 14.1513 3.26534
1 14.1886 16.3554 3.25373
1 16.3493 16.3395 1.08295
2 17.4306 13.0806 43.5908
2 19.618 13.0687 2.18664
2 17.4378 15.2682 2.1671
2 19.6096 15.257 0.00482287
1 18.5128 14.1517 1.08151
1 20.7062 14.1518 3.26626
1 18.5138 16.366 3.27187
1 20.6954 16.338 1.10717
2 21.7948 17.4519 0.0102881
2 2.19209 17.4386 2.18548
2 0.00283115 19.6111 2.19257
2 2.18563 19.6316 0.00141024
1 1.09604 18.5165 1.08168
1 3.28822 18.5263 3.26952
1 1.08289 20.7145 3.2525
1 3.27983 20.6968 1.10512
2 4.35852 17.4361 0.0151506
2 6.53232 17.4294 2.17518
2 4.35865 19.6158 2.17252
2 6.54809 19.6234 0.00173
1 5.44293 18.53 1.08069
1 7.64409 18.5478 3.25879
1 5.45602 20.7227 3.26004
1 7.6217 20.7006 1.07635
2 8.70693 17.4456 0.0126157
2 10.9047 17.4467 2.19088
2 8.70926 19.6186 2.17452
2 10.9109 19.6235 43.5939
1 9.79396 18.5302 1.07874
1 12.0059 18.5469 3.27522
1 9.8192 20.7017 3.26654
1 11.9918 20.7217 1.10529
2 13.0919 17.4414 43.5923
2 15.2712 17.4316 2.18979
2 13.0903 19.613 2.18524
2 15.2571 19.6206 43.5924
1 14.1839 18.5213 1.10518
1 16.3395 18.5334 3.27687
1 14.1541 20.7004 3.28683
1 16.3672 20.6904 1.0992
2 17.4464 17.4432 0.00454485
2 19.6295 17.4331 2.18243
2 17.4528 19.6159 2.16992
2 19.6257 19.6287 0.0121676
1 18.5466 18.5133 1.09465
1 20.7213 18.5305 3.27941
1 18.5479 20.7261 3.28763
1 20.7246 20.719 1.07337
2 0.00603531 21.7955 4.36471
2 2.17787 21.7887 6.54794
2 21.7962 2.17368 6.53567
2 2.18299 2.18467 4.35397
1 1.07892 1.09599 5.44409
1 3.28707 1.10793 7.63176
1 1.09429 3.28811 7.62448
1 3.2504 3.27347 5.45937
2 4.37211 0.00201203 4.37137
2 6.5311 0.0022061 6.54414
2 4.34703 2.17837 6.55282
2 6.53233 2.18044 4.36019
1 5.46189 1.08848 5.46085
1 7.64501 1.08421 7.64663
1 5.44529 3.26946 7.63372
1 7.61787 3.25978 5.44203
2 8.72059 21.7897 4.35654
2 10.9022 21.7885 6.55079
2 8.71187 2.18677 6.53372
2 10.9023 2.18015 4.35052
1 9.79932 1.07022 5.44711
1 11.9898 1.08826 7.61188
1 9.80541 3.28131 7.62418
1 11.973 3.2578 5.44403
2 13.0803 21.7963 4.35959
2 15.2512 0.0118423 6.5306
2 13.0817 2.18168 6.53216
2 15.2557 2.16984 4.36948
1 14.1578 1.10394 5.46875
1 16.3387 1.10017 7.61861
1 14.1556 3.27862 7.61596
1 16.3492 3.26118 5.44894
2 17.4453 0.00572952 4.36815
2 19.6108 0.00140314 6.52798