LAMMPS (3 Mar 2020)
#######################################
#	Cubic Silicon Carbide (3C-SiC)
#	Monte Carlo Test
#	Using Tersoff Potential
#######################################

units		metal
atom_style	atomic
dimension	3
boundary	p p p

# Lattice Constants a = 4.3596 A c = 4.3596 A for 100 3C-SiC
lattice custom 4.36 a1 1.0 0.0 0.0 a2 0.0 1.0 0.0 a3 0.0 0.0 1.0 basis 0.0 0.0 0.0 basis 0.5 0.0 0.5 basis 0.0 0.5 0.5 basis 0.5 0.5 0.0 basis 0.25 0.25 0.25  basis 0.75 0.25 0.75  basis 0.25 0.75 0.75 basis 0.75 0.75 0.25 orient x 0 0 1 orient y 1 2 0 orient z -2 1 0
Lattice spacing in x,y,z = 4.36 5.84955 5.84955

#orient x 1 0 0	#orient y 0 1 0 #orient z 0 0 1

region simBox block 0 20 0 20 0 20 units box
region atomBox block 0 20 0 20 0 10 units box

create_box 2 simBox
Created orthogonal box = (0 0 0) to (20 20 20)
  1 by 1 by 1 MPI processor grid
mass 1  12.011150	# Carbon
mass 2  28.086000	# Silicon

create_atoms 2 region atomBox basis 1 2 basis 2 2 basis 3 2 basis 4 2 basis 5 1 basis 6 1  basis 7 1  basis 8 1
Created 424 atoms
  create_atoms CPU = 0.00052309 secs

# ---------- Define Interatomic Potential ---------------------
pair_style tersoff
pair_coeff * * SiC.tersoff C Si
Reading potential file SiC.tersoff with DATE: 2011-04-26
neighbor	5 bin
neigh_modify	delay 0 every 1 check yes

dump		dumpID all atom 10 dump210SiC_MC.lammpstrj
variable e equal pe
run 0
WARNING: No fixes defined, atoms won't move (../verlet.cpp:52)
Neighbor list info ...
  update every 1 steps, delay 0 steps, check yes
  max neighbors/atom: 2000, page size: 100000
  master list distance cutoff = 8
  ghost atom cutoff = 8
  binsize = 4, bins = 5 5 5
  1 neighbor lists, perpetual/occasional/extra = 1 0 0
  (1) pair tersoff, perpetual
      attributes: full, newton on
      pair build: full/bin/atomonly
      stencil: full/bin/3d
      bin: standard
Per MPI rank memory allocation (min/avg/max) = 4.238 | 4.238 | 4.238 Mbytes
Step Temp E_pair E_mol TotEng Press 
       0            0    5444.8513            0    5444.8513    1086563.3 
Loop time of 9.53674e-07 on 1 procs for 0 steps with 424 atoms

0.0% CPU use with 1 MPI tasks x no OpenMP threads

MPI task timing breakdown:
Section |  min time  |  avg time  |  max time  |%varavg| %total
---------------------------------------------------------------
Pair    | 0          | 0          | 0          |   0.0 |  0.00
Neigh   | 0          | 0          | 0          |   0.0 |  0.00
Comm    | 0          | 0          | 0          |   0.0 |  0.00
Output  | 0          | 0          | 0          |   0.0 |  0.00
Modify  | 0          | 0          | 0          |   0.0 |  0.00
Other   |            | 9.537e-07  |            |       |100.00

Nlocal:    424 ave 424 max 424 min
Histogram: 1 0 0 0 0 0 0 0 0 0
Nghost:    2057 ave 2057 max 2057 min
Histogram: 1 0 0 0 0 0 0 0 0 0
Neighs:    0 ave 0 max 0 min
Histogram: 1 0 0 0 0 0 0 0 0 0
FullNghs:  62138 ave 62138 max 62138 min
Histogram: 1 0 0 0 0 0 0 0 0 0

Total # of neighbors = 62138
Ave neighs/atom = 146.552
Neighbor list builds = 0
Dangerous builds = 0
variable emin equal $e
variable emin equal 5444.85132597228
variable elast equal $e
variable elast equal 5444.85132597228
thermo_style custom step v_emin v_elast pe
run 0
WARNING: No fixes defined, atoms won't move (../verlet.cpp:52)
Per MPI rank memory allocation (min/avg/max) = 4.238 | 4.238 | 4.238 Mbytes
Step v_emin v_elast PotEng 
       0    5444.8513    5444.8513    5444.8513 
Loop time of 0 on 1 procs for 0 steps with 424 atoms

0.0% CPU use with 1 MPI tasks x no OpenMP threads

MPI task timing breakdown:
Section |  min time  |  avg time  |  max time  |%varavg| %total
---------------------------------------------------------------
Pair    | 0          | 0          | 0          |   0.0 |  0.00
Neigh   | 0          | 0          | 0          |   0.0 |  0.00
Comm    | 0          | 0          | 0          |   0.0 |  0.00
Output  | 0          | 0          | 0          |   0.0 |  0.00
Modify  | 0          | 0          | 0          |   0.0 |  0.00
Other   |            | 0          |            |       |  0.00

Nlocal:    424 ave 424 max 424 min
Histogram: 1 0 0 0 0 0 0 0 0 0
Nghost:    2057 ave 2057 max 2057 min
Histogram: 1 0 0 0 0 0 0 0 0 0
Neighs:    0 ave 0 max 0 min
Histogram: 1 0 0 0 0 0 0 0 0 0
FullNghs:  62138 ave 62138 max 62138 min
Histogram: 1 0 0 0 0 0 0 0 0 0

Total # of neighbors = 62138
Ave neighs/atom = 146.552
Neighbor list builds = 0
Dangerous builds = 0
variable elast equal $e
variable elast equal 5444.85132597228
run 1 pre no post no
Step v_emin v_elast PotEng 
       0    5444.8513    5444.8513    5444.8513 
       1    5444.8513    5444.8513    5444.9329 
Loop time of 0.00500417 on 1 procs for 1 steps with 424 atoms

run 1 pre no post no
Step v_emin v_elast PotEng 
       1    5444.8513    5444.8513    5444.9329 
       2    5444.8513    5444.8513    5443.5575 
Loop time of 0.00450206 on 1 procs for 1 steps with 424 atoms

variable elast equal $e
variable elast equal 5443.55750920623
run 1 pre no post no
Step v_emin v_elast PotEng 
       2    5444.8513    5443.5575    5443.5575 
       3    5444.8513    5443.5575    5514.1608 
Loop time of 0.00450993 on 1 procs for 1 steps with 424 atoms

run 1 pre no post no
Step v_emin v_elast PotEng 
       3    5444.8513    5443.5575    5514.1608 
       4    5444.8513    5443.5575    5443.3087 
Loop time of 0.004457 on 1 procs for 1 steps with 424 atoms

variable elast equal $e
variable elast equal 5443.30872765938
run 1 pre no post no
Step v_emin v_elast PotEng 
       4    5444.8513    5443.3087    5443.3087 
       5    5444.8513    5443.3087    5443.4447 
Loop time of 0.00491881 on 1 procs for 1 steps with 424 atoms

variable elast equal $e
variable elast equal 5443.44469322794
run 1 pre no post no
Step v_emin v_elast PotEng 
       5    5444.8513    5443.4447    5443.4447 
       6    5444.8513    5443.4447    5443.6609 
Loop time of 0.00450587 on 1 procs for 1 steps with 424 atoms

run 1 pre no post no
Step v_emin v_elast PotEng 
       6    5444.8513    5443.4447    5443.6609 
       7    5444.8513    5443.4447    5443.6572 
Loop time of 0.00452089 on 1 procs for 1 steps with 424 atoms

run 1 pre no post no
Step v_emin v_elast PotEng 
       7    5444.8513    5443.4447    5443.6572 
       8    5444.8513    5443.4447    5443.8312 
Loop time of 0.00497007 on 1 procs for 1 steps with 424 atoms

run 1 pre no post no
Step v_emin v_elast PotEng 
       8    5444.8513    5443.4447    5443.8312 
       9    5444.8513    5443.4447    5443.2669 
Loop time of 0.00460005 on 1 procs for 1 steps with 424 atoms

variable elast equal $e
variable elast equal 5443.26690556293
run 1 pre no post no
Step v_emin v_elast PotEng 
       9    5444.8513    5443.2669    5443.2669 
      10    5444.8513    5443.2669    5443.2678 
Loop time of 0.00502014 on 1 procs for 1 steps with 424 atoms

variable elast equal $e
variable elast equal 5443.26782672485
run 1 pre no post no
Step v_emin v_elast PotEng 
      10    5444.8513    5443.2678    5443.2678 
      11    5444.8513    5443.2678    5443.6084 
Loop time of 0.004632 on 1 procs for 1 steps with 424 atoms

run 1 pre no post no
Step v_emin v_elast PotEng 
      11    5444.8513    5443.2678    5443.6084 
      12    5444.8513    5443.2678    5445.7188 
Loop time of 0.00446582 on 1 procs for 1 steps with 424 atoms

run 1 pre no post no
Step v_emin v_elast PotEng 
      12    5444.8513    5443.2678    5445.7188 
      13    5444.8513    5443.2678    5444.1108 
Loop time of 0.00447106 on 1 procs for 1 steps with 424 atoms

run 1 pre no post no
Step v_emin v_elast PotEng 
      13    5444.8513    5443.2678    5444.1108 
      14    5444.8513    5443.2678     5443.334 
Loop time of 0.0044961 on 1 procs for 1 steps with 424 atoms

run 1 pre no post no
Step v_emin v_elast PotEng 
      14    5444.8513    5443.2678     5443.334 
      15    5444.8513    5443.2678    5444.7145 
Loop time of 0.00445795 on 1 procs for 1 steps with 424 atoms

run 1 pre no post no
Step v_emin v_elast PotEng 
      15    5444.8513    5443.2678    5444.7145 
      16    5444.8513    5443.2678    5443.0365 
Loop time of 0.00450397 on 1 procs for 1 steps with 424 atoms

variable elast equal $e
variable elast equal 5443.03650757349
run 1 pre no post no
Step v_emin v_elast PotEng 
      16    5444.8513    5443.0365    5443.0365 
      17    5444.8513    5443.0365    5443.1924 
Loop time of 0.00446296 on 1 procs for 1 steps with 424 atoms

run 1 pre no post no
Step v_emin v_elast PotEng 
      17    5444.8513    5443.0365    5443.1924 
      18    5444.8513    5443.0365    5509.8574 
Loop time of 0.00452089 on 1 procs for 1 steps with 424 atoms

run 1 pre no post no
Step v_emin v_elast PotEng 
      18    5444.8513    5443.0365    5509.8574 
      19    5444.8513    5443.0365    5493.2652 
Loop time of 0.00446582 on 1 procs for 1 steps with 424 atoms

run 1 pre no post no
Step v_emin v_elast PotEng 
      19    5444.8513    5443.0365    5493.2652 
      20    5444.8513    5443.0365    5497.4717 
Loop time of 0.00496507 on 1 procs for 1 steps with 424 atoms

run 1 pre no post no
Step v_emin v_elast PotEng 
      20    5444.8513    5443.0365    5497.4717 
      21    5444.8513    5443.0365    5443.3713 
Loop time of 0.004493 on 1 procs for 1 steps with 424 atoms

run 1 pre no post no
Step v_emin v_elast PotEng 
      21    5444.8513    5443.0365    5443.3713 
      22    5444.8513    5443.0365    5443.1157 
Loop time of 0.00446105 on 1 procs for 1 steps with 424 atoms

run 1 pre no post no
Step v_emin v_elast PotEng 
      22    5444.8513    5443.0365    5443.1157 
      23    5444.8513    5443.0365    5374.5772 
Loop time of 0.00451183 on 1 procs for 1 steps with 424 atoms

variable elast equal $e
variable elast equal 5374.57723131564
run 1 pre no post no
Step v_emin v_elast PotEng 
      23    5444.8513    5374.5772    5374.5772 
      24    5444.8513    5374.5772    5374.6971 
Loop time of 0.00446486 on 1 procs for 1 steps with 424 atoms

variable elast equal $e
variable elast equal 5374.69710253523
run 1 pre no post no
Step v_emin v_elast PotEng 
      24    5444.8513    5374.6971    5374.6971 
      25    5444.8513    5374.6971    5374.8179 
Loop time of 0.00457001 on 1 procs for 1 steps with 424 atoms

run 1 pre no post no
Step v_emin v_elast PotEng 
      25    5444.8513    5374.6971    5374.8179 
      26    5444.8513    5374.6971    5374.8628 
Loop time of 0.00446701 on 1 procs for 1 steps with 424 atoms

run 1 pre no post no
Step v_emin v_elast PotEng 
      26    5444.8513    5374.6971    5374.8628 
      27    5444.8513    5374.6971    5374.8549 
Loop time of 0.00447011 on 1 procs for 1 steps with 424 atoms

run 1 pre no post no
Step v_emin v_elast PotEng 
      27    5444.8513    5374.6971    5374.8549 
      28    5444.8513    5374.6971    5374.8156 
Loop time of 0.00448012 on 1 procs for 1 steps with 424 atoms

variable elast equal $e
variable elast equal 5374.81557340855
run 1 pre no post no
Step v_emin v_elast PotEng 
      28    5444.8513    5374.8156    5374.8156 
      29    5444.8513    5374.8156    5374.9395 
Loop time of 0.00447702 on 1 procs for 1 steps with 424 atoms

run 1 pre no post no
Step v_emin v_elast PotEng 
      29    5444.8513    5374.8156    5374.9395 
      30    5444.8513    5374.8156    5374.9775 
Loop time of 0.00500107 on 1 procs for 1 steps with 424 atoms

variable elast equal $e
variable elast equal 5374.97751289854
run 1 pre no post no
Step v_emin v_elast PotEng 
      30    5444.8513    5374.9775    5374.9775 
      31    5444.8513    5374.9775    5375.0316 
Loop time of 0.00446892 on 1 procs for 1 steps with 424 atoms

run 1 pre no post no
Step v_emin v_elast PotEng 
      31    5444.8513    5374.9775    5375.0316 
      32    5444.8513    5374.9775    5375.0498 
Loop time of 0.00450301 on 1 procs for 1 steps with 424 atoms

run 1 pre no post no
Step v_emin v_elast PotEng 
      32    5444.8513    5374.9775    5375.0498 
      33    5444.8513    5374.9775    5374.9692 
Loop time of 0.004462 on 1 procs for 1 steps with 424 atoms

variable elast equal $e
variable elast equal 5374.9691864566
run 1 pre no post no
Step v_emin v_elast PotEng 
      33    5444.8513    5374.9692    5374.9692 
      34    5444.8513    5374.9692    5375.2636 
Loop time of 0.00452209 on 1 procs for 1 steps with 424 atoms

run 1 pre no post no
Step v_emin v_elast PotEng 
      34    5444.8513    5374.9692    5375.2636 
      35    5444.8513    5374.9692    5375.2375 
Loop time of 0.00446582 on 1 procs for 1 steps with 424 atoms

run 1 pre no post no
Step v_emin v_elast PotEng 
      35    5444.8513    5374.9692    5375.2375 
      36    5444.8513    5374.9692    5374.7247 
Loop time of 0.00449014 on 1 procs for 1 steps with 424 atoms

variable elast equal $e
variable elast equal 5374.72469922361
run 1 pre no post no
Step v_emin v_elast PotEng 
      36    5444.8513    5374.7247    5374.7247 
      37    5444.8513    5374.7247    5374.5957 
Loop time of 0.00452995 on 1 procs for 1 steps with 424 atoms

variable elast equal $e
variable elast equal 5374.59572822013
run 1 pre no post no
Step v_emin v_elast PotEng 
      37    5444.8513    5374.5957    5374.5957 
      38    5444.8513    5374.5957    5374.6238 
Loop time of 0.0044899 on 1 procs for 1 steps with 424 atoms

variable elast equal $e
variable elast equal 5374.62377431615
run 1 pre no post no
Step v_emin v_elast PotEng 
      38    5444.8513    5374.6238    5374.6238 
      39    5444.8513    5374.6238    5374.7832 
Loop time of 0.00455713 on 1 procs for 1 steps with 424 atoms

run 1 pre no post no
Step v_emin v_elast PotEng 
      39    5444.8513    5374.6238    5374.7832 
      40    5444.8513    5374.6238    5375.3736 
Loop time of 0.00498486 on 1 procs for 1 steps with 424 atoms

run 1 pre no post no
Step v_emin v_elast PotEng 
      40    5444.8513    5374.6238    5375.3736 
      41    5444.8513    5374.6238    5374.8854 
Loop time of 0.004565 on 1 procs for 1 steps with 424 atoms

run 1 pre no post no
Step v_emin v_elast PotEng 
      41    5444.8513    5374.6238    5374.8854 
      42    5444.8513    5374.6238    5374.8115 
Loop time of 0.00448799 on 1 procs for 1 steps with 424 atoms

variable elast equal $e
variable elast equal 5374.81150456117
run 1 pre no post no
Step v_emin v_elast PotEng 
      42    5444.8513    5374.8115    5374.8115 
      43    5444.8513    5374.8115    5374.7124 
Loop time of 0.00460696 on 1 procs for 1 steps with 424 atoms

variable elast equal $e
variable elast equal 5374.71243905813
run 1 pre no post no
Step v_emin v_elast PotEng 
      43    5444.8513    5374.7124    5374.7124 
      44    5444.8513    5374.7124    5375.0457 
Loop time of 0.00464296 on 1 procs for 1 steps with 424 atoms

run 1 pre no post no
Step v_emin v_elast PotEng 
      44    5444.8513    5374.7124    5375.0457 
      45    5444.8513    5374.7124    5422.2106 
Loop time of 0.00450277 on 1 procs for 1 steps with 424 atoms

run 1 pre no post no
Step v_emin v_elast PotEng 
      45    5444.8513    5374.7124    5422.2106 
      46    5444.8513    5374.7124    5374.8631 
Loop time of 0.00450897 on 1 procs for 1 steps with 424 atoms

run 1 pre no post no
Step v_emin v_elast PotEng 
      46    5444.8513    5374.7124    5374.8631 
      47    5444.8513    5374.7124    5375.0088 
Loop time of 0.00456405 on 1 procs for 1 steps with 424 atoms

run 1 pre no post no
Step v_emin v_elast PotEng 
      47    5444.8513    5374.7124    5375.0088 
      48    5444.8513    5374.7124    5319.2338 
Loop time of 0.00452995 on 1 procs for 1 steps with 424 atoms

variable elast equal $e
variable elast equal 5319.23377185378
run 1 pre no post no
Step v_emin v_elast PotEng 
      48    5444.8513    5319.2338    5319.2338 
      49    5444.8513    5319.2338    5319.4897 
Loop time of 0.00449705 on 1 procs for 1 steps with 424 atoms

variable elast equal $e
variable elast equal 5319.48969062207
run 1 pre no post no
Step v_emin v_elast PotEng 
      49    5444.8513    5319.4897    5319.4897 
      50    5444.8513    5319.4897    5319.5514 
Loop time of 0.00505114 on 1 procs for 1 steps with 424 atoms

variable elast equal $e
variable elast equal 5319.55139965756
run 1 pre no post no
Step v_emin v_elast PotEng 
      50    5444.8513    5319.5514    5319.5514 
      51    5444.8513    5319.5514      5319.81 
Loop time of 0.00449085 on 1 procs for 1 steps with 424 atoms

run 1 pre no post no
Step v_emin v_elast PotEng 
      51    5444.8513    5319.5514      5319.81 
      52    5444.8513    5319.5514     5319.564 
Loop time of 0.00452685 on 1 procs for 1 steps with 424 atoms

variable elast equal $e
variable elast equal 5319.56399139104
run 1 pre no post no
Step v_emin v_elast PotEng 
      52    5444.8513     5319.564     5319.564 
      53    5444.8513     5319.564     5319.725 
Loop time of 0.00449514 on 1 procs for 1 steps with 424 atoms

run 1 pre no post no
Step v_emin v_elast PotEng 
      53    5444.8513     5319.564     5319.725 
      54    5444.8513     5319.564    5300.9962 
Loop time of 0.00448489 on 1 procs for 1 steps with 424 atoms

variable elast equal $e
variable elast equal 5300.9962400033
run 1 pre no post no
Step v_emin v_elast PotEng 
      54    5444.8513    5300.9962    5300.9962 
      55    5444.8513    5300.9962      5301.47 
Loop time of 0.004565 on 1 procs for 1 steps with 424 atoms

run 1 pre no post no
Step v_emin v_elast PotEng 
      55    5444.8513    5300.9962      5301.47 
      56    5444.8513    5300.9962    5301.4422 
Loop time of 0.00450015 on 1 procs for 1 steps with 424 atoms

run 1 pre no post no
Step v_emin v_elast PotEng 
      56    5444.8513    5300.9962    5301.4422 
      57    5444.8513    5300.9962    5286.5556 
Loop time of 0.00455713 on 1 procs for 1 steps with 424 atoms

variable elast equal $e
variable elast equal 5286.55560473141
run 1 pre no post no
Step v_emin v_elast PotEng 
      57    5444.8513    5286.5556    5286.5556 
      58    5444.8513    5286.5556    5286.4465 
Loop time of 0.00449514 on 1 procs for 1 steps with 424 atoms

variable elast equal $e
variable elast equal 5286.44649756537
run 1 pre no post no
Step v_emin v_elast PotEng 
      58    5444.8513    5286.4465    5286.4465 
      59    5444.8513    5286.4465    5286.6817 
Loop time of 0.00453806 on 1 procs for 1 steps with 424 atoms

run 1 pre no post no
Step v_emin v_elast PotEng 
      59    5444.8513    5286.4465    5286.6817 
      60    5444.8513    5286.4465    5286.9067 
Loop time of 0.00498796 on 1 procs for 1 steps with 424 atoms

run 1 pre no post no
Step v_emin v_elast PotEng 
      60    5444.8513    5286.4465    5286.9067 
      61    5444.8513    5286.4465    5286.5966 
Loop time of 0.00454712 on 1 procs for 1 steps with 424 atoms

run 1 pre no post no
Step v_emin v_elast PotEng 
      61    5444.8513    5286.4465    5286.5966 
      62    5444.8513    5286.4465    5286.8764 
Loop time of 0.00449204 on 1 procs for 1 steps with 424 atoms

run 1 pre no post no
Step v_emin v_elast PotEng 
      62    5444.8513    5286.4465    5286.8764 
      63    5444.8513    5286.4465    5356.6729 
Loop time of 0.00448513 on 1 procs for 1 steps with 424 atoms

run 1 pre no post no
Step v_emin v_elast PotEng 
      63    5444.8513    5286.4465    5356.6729 
      64    5444.8513    5286.4465    5286.6467 
Loop time of 0.00454712 on 1 procs for 1 steps with 424 atoms

run 1 pre no post no
Step v_emin v_elast PotEng 
      64    5444.8513    5286.4465    5286.6467 
      65    5444.8513    5286.4465    5286.4734 
Loop time of 0.00448799 on 1 procs for 1 steps with 424 atoms

variable elast equal $e
variable elast equal 5286.47342815882
run 1 pre no post no
Step v_emin v_elast PotEng 
      65    5444.8513    5286.4734    5286.4734 
      66    5444.8513    5286.4734     5286.625 
Loop time of 0.00454092 on 1 procs for 1 steps with 424 atoms

run 1 pre no post no
Step v_emin v_elast PotEng 
      66    5444.8513    5286.4734     5286.625 
      67    5444.8513    5286.4734    5286.5296 
Loop time of 0.00448513 on 1 procs for 1 steps with 424 atoms

run 1 pre no post no
Step v_emin v_elast PotEng 
      67    5444.8513    5286.4734    5286.5296 
      68    5444.8513    5286.4734    5198.8104 
Loop time of 0.00454307 on 1 procs for 1 steps with 424 atoms

variable elast equal $e
variable elast equal 5198.8103825864
run 1 pre no post no
Step v_emin v_elast PotEng 
      68    5444.8513    5198.8104    5198.8104 
      69    5444.8513    5198.8104    5199.0138 
Loop time of 0.00461197 on 1 procs for 1 steps with 424 atoms

run 1 pre no post no
Step v_emin v_elast PotEng 
      69    5444.8513    5198.8104    5199.0138 
      70    5444.8513    5198.8104    5199.2039 
Loop time of 0.00511694 on 1 procs for 1 steps with 424 atoms

run 1 pre no post no
Step v_emin v_elast PotEng 
      70    5444.8513    5198.8104    5199.2039 
      71    5444.8513    5198.8104    5198.9352 
Loop time of 0.0045259 on 1 procs for 1 steps with 424 atoms

run 1 pre no post no
Step v_emin v_elast PotEng 
      71    5444.8513    5198.8104    5198.9352 
      72    5444.8513    5198.8104    5198.8058 
Loop time of 0.00456309 on 1 procs for 1 steps with 424 atoms

variable elast equal $e
variable elast equal 5198.80576659482
run 1 pre no post no
Step v_emin v_elast PotEng 
      72    5444.8513    5198.8058    5198.8058 
      73    5444.8513    5198.8058    5199.1612 
Loop time of 0.00450802 on 1 procs for 1 steps with 424 atoms

run 1 pre no post no
Step v_emin v_elast PotEng 
      73    5444.8513    5198.8058    5199.1612 
      74    5444.8513    5198.8058    5198.9433 
Loop time of 0.00463295 on 1 procs for 1 steps with 424 atoms

run 1 pre no post no
Step v_emin v_elast PotEng 
      74    5444.8513    5198.8058    5198.9433 
      75    5444.8513    5198.8058    5199.0379 
Loop time of 0.00450921 on 1 procs for 1 steps with 424 atoms

run 1 pre no post no
Step v_emin v_elast PotEng 
      75    5444.8513    5198.8058    5199.0379 
      76    5444.8513    5198.8058    5198.9727 
Loop time of 0.00451207 on 1 procs for 1 steps with 424 atoms

run 1 pre no post no
Step v_emin v_elast PotEng 
      76    5444.8513    5198.8058    5198.9727 
      77    5444.8513    5198.8058    5198.9671 
Loop time of 0.00457406 on 1 procs for 1 steps with 424 atoms

run 1 pre no post no
Step v_emin v_elast PotEng 
      77    5444.8513    5198.8058    5198.9671 
      78    5444.8513    5198.8058    5199.0416 
Loop time of 0.00450897 on 1 procs for 1 steps with 424 atoms

run 1 pre no post no
Step v_emin v_elast PotEng 
      78    5444.8513    5198.8058    5199.0416 
      79    5444.8513    5198.8058    5199.0572 
Loop time of 0.00458002 on 1 procs for 1 steps with 424 atoms

variable elast equal $e
variable elast equal 5199.05717004643
run 1 pre no post no
Step v_emin v_elast PotEng 
      79    5444.8513    5199.0572    5199.0572 
      80    5444.8513    5199.0572    5199.3451 
Loop time of 0.00505185 on 1 procs for 1 steps with 424 atoms

run 1 pre no post no
Step v_emin v_elast PotEng 
      80    5444.8513    5199.0572    5199.3451 
      81    5444.8513    5199.0572     5200.419 
Loop time of 0.00458598 on 1 procs for 1 steps with 424 atoms

run 1 pre no post no
Step v_emin v_elast PotEng 
      81    5444.8513    5199.0572     5200.419 
      82    5444.8513    5199.0572    5199.2103 
Loop time of 0.00451779 on 1 procs for 1 steps with 424 atoms

variable elast equal $e
variable elast equal 5199.21029519674
run 1 pre no post no
Step v_emin v_elast PotEng 
      82    5444.8513    5199.2103    5199.2103 
      83    5444.8513    5199.2103    5199.0954 
Loop time of 0.00457096 on 1 procs for 1 steps with 424 atoms

variable elast equal $e
variable elast equal 5199.0954432957
run 1 pre no post no
Step v_emin v_elast PotEng 
      83    5444.8513    5199.0954    5199.0954 
      84    5444.8513    5199.0954    5199.1804 
Loop time of 0.00459099 on 1 procs for 1 steps with 424 atoms

run 1 pre no post no
Step v_emin v_elast PotEng 
      84    5444.8513    5199.0954    5199.1804 
      85    5444.8513    5199.0954    5199.2315 
Loop time of 0.00452781 on 1 procs for 1 steps with 424 atoms

run 1 pre no post no
Step v_emin v_elast PotEng 
      85    5444.8513    5199.0954    5199.2315 
      86    5444.8513    5199.0954     5199.935 
Loop time of 0.00459814 on 1 procs for 1 steps with 424 atoms

run 1 pre no post no
Step v_emin v_elast PotEng 
      86    5444.8513    5199.0954     5199.935 
      87    5444.8513    5199.0954    5199.1874 
Loop time of 0.00452089 on 1 procs for 1 steps with 424 atoms

run 1 pre no post no
Step v_emin v_elast PotEng 
      87    5444.8513    5199.0954    5199.1874 
      88    5444.8513    5199.0954    5199.6528 
Loop time of 0.00457215 on 1 procs for 1 steps with 424 atoms

run 1 pre no post no
Step v_emin v_elast PotEng 
      88    5444.8513    5199.0954    5199.6528 
      89    5444.8513    5199.0954    5198.9683 
Loop time of 0.00452209 on 1 procs for 1 steps with 424 atoms

variable elast equal $e
variable elast equal 5198.96828479198
run 1 pre no post no
Step v_emin v_elast PotEng 
      89    5444.8513    5198.9683    5198.9683 
      90    5444.8513    5198.9683    5199.1354 
Loop time of 0.00507808 on 1 procs for 1 steps with 424 atoms

variable elast equal $e
variable elast equal 5199.13542606947
run 1 pre no post no
Step v_emin v_elast PotEng 
      90    5444.8513    5199.1354    5199.1354 
      91    5444.8513    5199.1354    5199.6804 
Loop time of 0.00462985 on 1 procs for 1 steps with 424 atoms

run 1 pre no post no
Step v_emin v_elast PotEng 
      91    5444.8513    5199.1354    5199.6804 
      92    5444.8513    5199.1354    5199.1624 
Loop time of 0.004565 on 1 procs for 1 steps with 424 atoms

variable elast equal $e
variable elast equal 5199.16236910379
run 1 pre no post no
Step v_emin v_elast PotEng 
      92    5444.8513    5199.1624    5199.1624 
      93    5444.8513    5199.1624    5199.1644 
Loop time of 0.00453782 on 1 procs for 1 steps with 424 atoms

variable elast equal $e
variable elast equal 5199.16435295795
run 1 pre no post no
Step v_emin v_elast PotEng 
      93    5444.8513    5199.1644    5199.1644 
      94    5444.8513    5199.1644    5199.3158 
Loop time of 0.00496602 on 1 procs for 1 steps with 424 atoms

variable elast equal $e
variable elast equal 5199.31579781041
run 1 pre no post no
Step v_emin v_elast PotEng 
      94    5444.8513    5199.3158    5199.3158 
      95    5444.8513    5199.3158    5199.6384 
Loop time of 0.00464296 on 1 procs for 1 steps with 424 atoms

run 1 pre no post no
Step v_emin v_elast PotEng 
      95    5444.8513    5199.3158    5199.6384 
      96    5444.8513    5199.3158     5199.449 
Loop time of 0.00506401 on 1 procs for 1 steps with 424 atoms

run 1 pre no post no
Step v_emin v_elast PotEng 
      96    5444.8513    5199.3158     5199.449 
      97    5444.8513    5199.3158    5199.6976 
Loop time of 0.00457096 on 1 procs for 1 steps with 424 atoms

run 1 pre no post no
Step v_emin v_elast PotEng 
      97    5444.8513    5199.3158    5199.6976 
      98    5444.8513    5199.3158    5199.3836 
Loop time of 0.00455713 on 1 procs for 1 steps with 424 atoms

run 1 pre no post no
Step v_emin v_elast PotEng 
      98    5444.8513    5199.3158    5199.3836 
      99    5444.8513    5199.3158    5199.3457 
Loop time of 0.00460196 on 1 procs for 1 steps with 424 atoms

variable elast equal $e
variable elast equal 5199.3457047543
run 1 pre no post no
Step v_emin v_elast PotEng 
      99    5444.8513    5199.3457    5199.3457 
     100    5444.8513    5199.3457    5199.6403 
Loop time of 0.00546789 on 1 procs for 1 steps with 424 atoms

run 1 pre no post no
Step v_emin v_elast PotEng 
     100    5444.8513    5199.3457    5199.6403 
     101    5444.8513    5199.3457    5144.4428 
Loop time of 0.00462294 on 1 procs for 1 steps with 424 atoms

variable elast equal $e
variable elast equal 5144.44280991239
run 1 pre no post no
Step v_emin v_elast PotEng 
     101    5444.8513    5144.4428    5144.4428 
     102    5444.8513    5144.4428    5144.6535 
Loop time of 0.00456309 on 1 procs for 1 steps with 424 atoms

run 1 pre no post no
Step v_emin v_elast PotEng 
     102    5444.8513    5144.4428    5144.6535 
     103    5444.8513    5144.4428    5144.7033 
Loop time of 0.00461388 on 1 procs for 1 steps with 424 atoms

run 1 pre no post no
Step v_emin v_elast PotEng 
     103    5444.8513    5144.4428    5144.7033 
     104    5444.8513    5144.4428    5144.4469 
Loop time of 0.00498319 on 1 procs for 1 steps with 424 atoms

variable elast equal $e
variable elast equal 5144.44685016487
run 1 pre no post no
Step v_emin v_elast PotEng 
     104    5444.8513    5144.4469    5144.4469 
     105    5444.8513    5144.4469    5144.4735 
Loop time of 0.00463581 on 1 procs for 1 steps with 424 atoms

variable elast equal $e
variable elast equal 5144.47350139196
run 1 pre no post no
Step v_emin v_elast PotEng 
     105    5444.8513    5144.4735    5144.4735 
     106    5444.8513    5144.4735    5145.4127 
Loop time of 0.00460792 on 1 procs for 1 steps with 424 atoms

run 1 pre no post no
Step v_emin v_elast PotEng 
     106    5444.8513    5144.4735    5145.4127 
     107    5444.8513    5144.4735    5200.6372 
Loop time of 0.0046289 on 1 procs for 1 steps with 424 atoms

run 1 pre no post no
Step v_emin v_elast PotEng 
     107    5444.8513    5144.4735    5200.6372 
     108    5444.8513    5144.4735    5144.2946 
Loop time of 0.00498796 on 1 procs for 1 steps with 424 atoms

variable elast equal $e
variable elast equal 5144.29459199682
run 1 pre no post no
Step v_emin v_elast PotEng 
     108    5444.8513    5144.2946    5144.2946 
     109    5444.8513    5144.2946     5140.596 
Loop time of 0.00462604 on 1 procs for 1 steps with 424 atoms

variable elast equal $e
variable elast equal 5140.59604106739
run 1 pre no post no
Step v_emin v_elast PotEng 
     109    5444.8513     5140.596     5140.596 
     110    5444.8513     5140.596     5140.824 
Loop time of 0.00507593 on 1 procs for 1 steps with 424 atoms

run 1 pre no post no
Step v_emin v_elast PotEng 
     110    5444.8513     5140.596     5140.824 
     111    5444.8513     5140.596    5140.6493 
Loop time of 0.00462103 on 1 procs for 1 steps with 424 atoms

run 1 pre no post no
Step v_emin v_elast PotEng 
     111    5444.8513     5140.596    5140.6493 
     112    5444.8513     5140.596    5141.2298 
Loop time of 0.00459599 on 1 procs for 1 steps with 424 atoms

run 1 pre no post no
Step v_emin v_elast PotEng 
     112    5444.8513     5140.596    5141.2298 
     113    5444.8513     5140.596    5136.8744 
Loop time of 0.00461793 on 1 procs for 1 steps with 424 atoms

variable elast equal $e
variable elast equal 5136.87441318297
run 1 pre no post no
Step v_emin v_elast PotEng 
     113    5444.8513    5136.8744    5136.8744 
     114    5444.8513    5136.8744    5136.9771 
Loop time of 0.00456405 on 1 procs for 1 steps with 424 atoms

variable elast equal $e
variable elast equal 5136.97708515254
run 1 pre no post no
Step v_emin v_elast PotEng 
     114    5444.8513    5136.9771    5136.9771 
     115    5444.8513    5136.9771    5137.1161 
Loop time of 0.00461698 on 1 procs for 1 steps with 424 atoms

run 1 pre no post no
Step v_emin v_elast PotEng 
     115    5444.8513    5136.9771    5137.1161 
     116    5444.8513    5136.9771     5137.052 
Loop time of 0.0045619 on 1 procs for 1 steps with 424 atoms

variable elast equal $e
variable elast equal 5137.05202055648
run 1 pre no post no
Step v_emin v_elast PotEng 
     116    5444.8513     5137.052     5137.052 
     117    5444.8513     5137.052    5137.1707 
Loop time of 0.00465417 on 1 procs for 1 steps with 424 atoms

run 1 pre no post no
Step v_emin v_elast PotEng 
     117    5444.8513     5137.052    5137.1707 
     118    5444.8513     5137.052     5137.489 
Loop time of 0.0046401 on 1 procs for 1 steps with 424 atoms

run 1 pre no post no
Step v_emin v_elast PotEng 
     118    5444.8513     5137.052     5137.489 
     119    5444.8513     5137.052     5137.116 
Loop time of 0.00456285 on 1 procs for 1 steps with 424 atoms

variable elast equal $e
variable elast equal 5137.1159953233
run 1 pre no post no
Step v_emin v_elast PotEng 
     119    5444.8513     5137.116     5137.116 
     120    5444.8513     5137.116    5137.5103 
Loop time of 0.00511599 on 1 procs for 1 steps with 424 atoms

run 1 pre no post no
Step v_emin v_elast PotEng 
     120    5444.8513     5137.116    5137.5103 
     121    5444.8513     5137.116    5137.1411 
Loop time of 0.00456715 on 1 procs for 1 steps with 424 atoms

variable elast equal $e
variable elast equal 5137.14106722453
run 1 pre no post no
Step v_emin v_elast PotEng 
     121    5444.8513    5137.1411    5137.1411 
     122    5444.8513    5137.1411    5137.5485 
Loop time of 0.00460196 on 1 procs for 1 steps with 424 atoms

run 1 pre no post no
Step v_emin v_elast PotEng 
     122    5444.8513    5137.1411    5137.5485 
     123    5444.8513    5137.1411    5137.1464 
Loop time of 0.00456691 on 1 procs for 1 steps with 424 atoms

variable elast equal $e
variable elast equal 5137.14637376064
run 1 pre no post no
Step v_emin v_elast PotEng 
     123    5444.8513    5137.1464    5137.1464 
     124    5444.8513    5137.1464    5125.5483 
Loop time of 0.00457907 on 1 procs for 1 steps with 424 atoms

variable elast equal $e
variable elast equal 5125.54830906252
run 1 pre no post no
Step v_emin v_elast PotEng 
     124    5444.8513    5125.5483    5125.5483 
     125    5444.8513    5125.5483    5126.2945 
Loop time of 0.00458217 on 1 procs for 1 steps with 424 atoms

run 1 pre no post no
Step v_emin v_elast PotEng 
     125    5444.8513    5125.5483    5126.2945 
     126    5444.8513    5125.5483    5125.6119 
Loop time of 0.0045619 on 1 procs for 1 steps with 424 atoms

run 1 pre no post no
Step v_emin v_elast PotEng 
     126    5444.8513    5125.5483    5125.6119 
     127    5444.8513    5125.5483    5125.8068 
Loop time of 0.00461793 on 1 procs for 1 steps with 424 atoms

run 1 pre no post no
Step v_emin v_elast PotEng 
     127    5444.8513    5125.5483    5125.8068 
     128    5444.8513    5125.5483    5125.6968 
Loop time of 0.00456095 on 1 procs for 1 steps with 424 atoms

variable elast equal $e
variable elast equal 5125.6967638246
run 1 pre no post no
Step v_emin v_elast PotEng 
     128    5444.8513    5125.6968    5125.6968 
     129    5444.8513    5125.6968    5125.5806 
Loop time of 0.00461292 on 1 procs for 1 steps with 424 atoms

variable elast equal $e
variable elast equal 5125.58059746725
run 1 pre no post no
Step v_emin v_elast PotEng 
     129    5444.8513    5125.5806    5125.5806 
     130    5444.8513    5125.5806    5126.2763 
Loop time of 0.0050559 on 1 procs for 1 steps with 424 atoms

run 1 pre no post no
Step v_emin v_elast PotEng 
     130    5444.8513    5125.5806    5126.2763 
     131    5444.8513    5125.5806    5125.6543 
Loop time of 0.00461102 on 1 procs for 1 steps with 424 atoms

run 1 pre no post no
Step v_emin v_elast PotEng 
     131    5444.8513    5125.5806    5125.6543 
     132    5444.8513    5125.5806    5125.6667 
Loop time of 0.00455379 on 1 procs for 1 steps with 424 atoms

run 1 pre no post no
Step v_emin v_elast PotEng 
     132    5444.8513    5125.5806    5125.6667 
     133    5444.8513    5125.5806    5125.8273 
Loop time of 0.00461102 on 1 procs for 1 steps with 424 atoms

variable elast equal $e
variable elast equal 5125.82731907409
run 1 pre no post no
Step v_emin v_elast PotEng 
     133    5444.8513    5125.8273    5125.8273 
     134    5444.8513    5125.8273     5126.095 
Loop time of 0.00459123 on 1 procs for 1 steps with 424 atoms

run 1 pre no post no
Step v_emin v_elast PotEng 
     134    5444.8513    5125.8273     5126.095 
     135    5444.8513    5125.8273    5125.8419 
Loop time of 0.00454998 on 1 procs for 1 steps with 424 atoms

variable elast equal $e
variable elast equal 5125.84188484525
run 1 pre no post no
Step v_emin v_elast PotEng 
     135    5444.8513    5125.8419    5125.8419 
     136    5444.8513    5125.8419    5195.2721 
Loop time of 0.00461197 on 1 procs for 1 steps with 424 atoms

run 1 pre no post no
Step v_emin v_elast PotEng 
     136    5444.8513    5125.8419    5195.2721 
     137    5444.8513    5125.8419    5126.0632 
Loop time of 0.00456023 on 1 procs for 1 steps with 424 atoms

run 1 pre no post no
Step v_emin v_elast PotEng 
     137    5444.8513    5125.8419    5126.0632 
     138    5444.8513    5125.8419    5125.7782 
Loop time of 0.00461102 on 1 procs for 1 steps with 424 atoms

variable elast equal $e
variable elast equal 5125.77818715909
run 1 pre no post no
Step v_emin v_elast PotEng 
     138    5444.8513    5125.7782    5125.7782 
     139    5444.8513    5125.7782     5125.983 
Loop time of 0.00462794 on 1 procs for 1 steps with 424 atoms

run 1 pre no post no
Step v_emin v_elast PotEng 
     139    5444.8513    5125.7782     5125.983 
     140    5444.8513    5125.7782    5125.7227 
Loop time of 0.00509787 on 1 procs for 1 steps with 424 atoms

variable elast equal $e
variable elast equal 5125.72266358191
run 1 pre no post no
Step v_emin v_elast PotEng 
     140    5444.8513    5125.7227    5125.7227 
     141    5444.8513    5125.7227    5125.8359 
Loop time of 0.00455594 on 1 procs for 1 steps with 424 atoms

run 1 pre no post no
Step v_emin v_elast PotEng 
     141    5444.8513    5125.7227    5125.8359 
     142    5444.8513    5125.7227     5125.876 
Loop time of 0.00461102 on 1 procs for 1 steps with 424 atoms

variable elast equal $e
variable elast equal 5125.87601879572
run 1 pre no post no
Step v_emin v_elast PotEng 
     142    5444.8513     5125.876     5125.876 
     143    5444.8513     5125.876     5125.907 
Loop time of 0.00454903 on 1 procs for 1 steps with 424 atoms

variable elast equal $e
variable elast equal 5125.90699913101
run 1 pre no post no
Step v_emin v_elast PotEng 
     143    5444.8513     5125.907     5125.907 
     144    5444.8513     5125.907    5126.6616 
Loop time of 0.00457001 on 1 procs for 1 steps with 424 atoms

run 1 pre no post no
Step v_emin v_elast PotEng 
     144    5444.8513     5125.907    5126.6616 
     145    5444.8513     5125.907    5125.6749 
Loop time of 0.00455999 on 1 procs for 1 steps with 424 atoms

variable elast equal $e
variable elast equal 5125.67489367371
run 1 pre no post no
Step v_emin v_elast PotEng 
     145    5444.8513    5125.6749    5125.6749 
     146    5444.8513    5125.6749    5125.9908 
Loop time of 0.00464106 on 1 procs for 1 steps with 424 atoms

run 1 pre no post no
Step v_emin v_elast PotEng 
     146    5444.8513    5125.6749    5125.9908 
     147    5444.8513    5125.6749    5126.0254 
Loop time of 0.00470304 on 1 procs for 1 steps with 424 atoms

run 1 pre no post no
Step v_emin v_elast PotEng 
     147    5444.8513    5125.6749    5126.0254 
     148    5444.8513    5125.6749    5125.6981 
Loop time of 0.00458097 on 1 procs for 1 steps with 424 atoms

variable elast equal $e
variable elast equal 5125.69809983803
run 1 pre no post no
Step v_emin v_elast PotEng 
     148    5444.8513    5125.6981    5125.6981 
     149    5444.8513    5125.6981    5126.2154 
Loop time of 0.00466108 on 1 procs for 1 steps with 424 atoms

run 1 pre no post no
Step v_emin v_elast PotEng 
     149    5444.8513    5125.6981    5126.2154 
     150    5444.8513    5125.6981     5116.469 
Loop time of 0.00528002 on 1 procs for 1 steps with 424 atoms

variable elast equal $e
variable elast equal 5116.46903689145
run 1 pre no post no
Step v_emin v_elast PotEng 
     150    5444.8513     5116.469     5116.469 
     151    5444.8513     5116.469    5116.6537 
Loop time of 0.00461721 on 1 procs for 1 steps with 424 atoms

variable elast equal $e
variable elast equal 5116.65365543821
run 1 pre no post no
Step v_emin v_elast PotEng 
     151    5444.8513    5116.6537    5116.6537 
     152    5444.8513    5116.6537    5055.3494 
Loop time of 0.00480795 on 1 procs for 1 steps with 424 atoms

variable elast equal $e
variable elast equal 5055.3494088453
run 1 pre no post no
Step v_emin v_elast PotEng 
     152    5444.8513    5055.3494    5055.3494 
     153    5444.8513    5055.3494    4995.2144 
Loop time of 0.00463009 on 1 procs for 1 steps with 424 atoms

variable elast equal $e
variable elast equal 4995.21436764544
run 1 pre no post no
Step v_emin v_elast PotEng 
     153    5444.8513    4995.2144    4995.2144 
     154    5444.8513    4995.2144    4995.3693 
Loop time of 0.00461793 on 1 procs for 1 steps with 424 atoms

run 1 pre no post no
Step v_emin v_elast PotEng 
     154    5444.8513    4995.2144    4995.3693 
     155    5444.8513    4995.2144    4995.4748 
Loop time of 0.00464892 on 1 procs for 1 steps with 424 atoms

run 1 pre no post no
Step v_emin v_elast PotEng 
     155    5444.8513    4995.2144    4995.4748 
     156    5444.8513    4995.2144    4995.5124 
Loop time of 0.00473285 on 1 procs for 1 steps with 424 atoms

run 1 pre no post no
Step v_emin v_elast PotEng 
     156    5444.8513    4995.2144    4995.5124 
     157    5444.8513    4995.2144    4995.0563 
Loop time of 0.004637 on 1 procs for 1 steps with 424 atoms

variable elast equal $e
variable elast equal 4995.0563092401
run 1 pre no post no
Step v_emin v_elast PotEng 
     157    5444.8513    4995.0563    4995.0563 
     158    5444.8513    4995.0563    4996.3153 
Loop time of 0.00584102 on 1 procs for 1 steps with 424 atoms

run 1 pre no post no
Step v_emin v_elast PotEng 
     158    5444.8513    4995.0563    4996.3153 
     159    5444.8513    4995.0563    4976.0172 
Loop time of 0.0046761 on 1 procs for 1 steps with 424 atoms

variable elast equal $e
variable elast equal 4976.01718844231
run 1 pre no post no
Step v_emin v_elast PotEng 
     159    5444.8513    4976.0172    4976.0172 
     160    5444.8513    4976.0172    4976.3394 
Loop time of 0.0052681 on 1 procs for 1 steps with 424 atoms

run 1 pre no post no
Step v_emin v_elast PotEng 
     160    5444.8513    4976.0172    4976.3394 
     161    5444.8513    4976.0172     4976.707 
Loop time of 0.00465178 on 1 procs for 1 steps with 424 atoms

run 1 pre no post no
Step v_emin v_elast PotEng 
     161    5444.8513    4976.0172     4976.707 
     162    5444.8513    4976.0172    4976.1163 
Loop time of 0.00457788 on 1 procs for 1 steps with 424 atoms

run 1 pre no post no
Step v_emin v_elast PotEng 
     162    5444.8513    4976.0172    4976.1163 
     163    5444.8513    4976.0172    4976.1517 
Loop time of 0.00466299 on 1 procs for 1 steps with 424 atoms

variable elast equal $e
variable elast equal 4976.15174322046
run 1 pre no post no
Step v_emin v_elast PotEng 
     163    5444.8513    4976.1517    4976.1517 
     164    5444.8513    4976.1517    4976.4891 
Loop time of 0.00474405 on 1 procs for 1 steps with 424 atoms

run 1 pre no post no
Step v_emin v_elast PotEng 
     164    5444.8513    4976.1517    4976.4891 
     165    5444.8513    4976.1517    4976.0043 
Loop time of 0.00473404 on 1 procs for 1 steps with 424 atoms

variable elast equal $e
variable elast equal 4976.00431008854
run 1 pre no post no
Step v_emin v_elast PotEng 
     165    5444.8513    4976.0043    4976.0043 
     166    5444.8513    4976.0043    4976.1352 
Loop time of 0.00459695 on 1 procs for 1 steps with 424 atoms

run 1 pre no post no
Step v_emin v_elast PotEng 
     166    5444.8513    4976.0043    4976.1352 
     167    5444.8513    4976.0043    4976.1081 
Loop time of 0.00468206 on 1 procs for 1 steps with 424 atoms

run 1 pre no post no
Step v_emin v_elast PotEng 
     167    5444.8513    4976.0043    4976.1081 
     168    5444.8513    4976.0043     4976.271 
Loop time of 0.00474191 on 1 procs for 1 steps with 424 atoms

run 1 pre no post no
Step v_emin v_elast PotEng 
     168    5444.8513    4976.0043     4976.271 
     169    5444.8513    4976.0043    4976.1638 
Loop time of 0.00465918 on 1 procs for 1 steps with 424 atoms

run 1 pre no post no
Step v_emin v_elast PotEng 
     169    5444.8513    4976.0043    4976.1638 
     170    5444.8513    4976.0043    4976.0849 
Loop time of 0.00512004 on 1 procs for 1 steps with 424 atoms

variable elast equal $e
variable elast equal 4976.08487763834
run 1 pre no post no
Step v_emin v_elast PotEng 
     170    5444.8513    4976.0849    4976.0849 
     171    5444.8513    4976.0849      4976.31 
Loop time of 0.00464201 on 1 procs for 1 steps with 424 atoms

run 1 pre no post no
Step v_emin v_elast PotEng 
     171    5444.8513    4976.0849      4976.31 
     172    5444.8513    4976.0849    4976.3312 
Loop time of 0.00476098 on 1 procs for 1 steps with 424 atoms

run 1 pre no post no
Step v_emin v_elast PotEng 
     172    5444.8513    4976.0849    4976.3312 
     173    5444.8513    4976.0849    4976.4205 
Loop time of 0.0047121 on 1 procs for 1 steps with 424 atoms

run 1 pre no post no
Step v_emin v_elast PotEng 
     173    5444.8513    4976.0849    4976.4205 
     174    5444.8513    4976.0849    4976.0262 
Loop time of 0.00460505 on 1 procs for 1 steps with 424 atoms

variable elast equal $e
variable elast equal 4976.026211088
run 1 pre no post no
Step v_emin v_elast PotEng 
     174    5444.8513    4976.0262    4976.0262 
     175    5444.8513    4976.0262    4976.2916 
Loop time of 0.00458407 on 1 procs for 1 steps with 424 atoms

run 1 pre no post no
Step v_emin v_elast PotEng 
     175    5444.8513    4976.0262    4976.2916 
     176    5444.8513    4976.0262    4976.3799 
Loop time of 0.00478315 on 1 procs for 1 steps with 424 atoms

variable elast equal $e
variable elast equal 4976.37993969528
run 1 pre no post no
Step v_emin v_elast PotEng 
     176    5444.8513    4976.3799    4976.3799 
     177    5444.8513    4976.3799      4976.39 
Loop time of 0.00458908 on 1 procs for 1 steps with 424 atoms

variable elast equal $e
variable elast equal 4976.38997699362
run 1 pre no post no
Step v_emin v_elast PotEng 
     177    5444.8513      4976.39      4976.39 
     178    5444.8513      4976.39    4976.4957 
Loop time of 0.00465989 on 1 procs for 1 steps with 424 atoms

variable elast equal $e
variable elast equal 4976.49565048928
run 1 pre no post no
Step v_emin v_elast PotEng 
     178    5444.8513    4976.4957    4976.4957 
     179    5444.8513    4976.4957    4976.5009 
Loop time of 0.00460792 on 1 procs for 1 steps with 424 atoms

variable elast equal $e
variable elast equal 4976.50091900921
run 1 pre no post no
Step v_emin v_elast PotEng 
     179    5444.8513    4976.5009    4976.5009 
     180    5444.8513    4976.5009    4976.7959 
Loop time of 0.00528407 on 1 procs for 1 steps with 424 atoms

run 1 pre no post no
Step v_emin v_elast PotEng 
     180    5444.8513    4976.5009    4976.7959 
     181    5444.8513    4976.5009    4976.9232 
Loop time of 0.00461411 on 1 procs for 1 steps with 424 atoms

run 1 pre no post no
Step v_emin v_elast PotEng 
     181    5444.8513    4976.5009    4976.9232 
     182    5444.8513    4976.5009    4976.6424 
Loop time of 0.00469494 on 1 procs for 1 steps with 424 atoms

run 1 pre no post no
Step v_emin v_elast PotEng 
     182    5444.8513    4976.5009    4976.6424 
     183    5444.8513    4976.5009    4960.8126 
Loop time of 0.00460696 on 1 procs for 1 steps with 424 atoms

variable elast equal $e
variable elast equal 4960.81257563261
run 1 pre no post no
Step v_emin v_elast PotEng 
     183    5444.8513    4960.8126    4960.8126 
     184    5444.8513    4960.8126    4961.0521 
Loop time of 0.00475907 on 1 procs for 1 steps with 424 atoms

run 1 pre no post no
Step v_emin v_elast PotEng 
     184    5444.8513    4960.8126    4961.0521 
     185    5444.8513    4960.8126    4952.0196 
Loop time of 0.00465488 on 1 procs for 1 steps with 424 atoms

variable elast equal $e
variable elast equal 4952.0195614182
run 1 pre no post no
Step v_emin v_elast PotEng 
     185    5444.8513    4952.0196    4952.0196 
     186    5444.8513    4952.0196    4952.1722 
Loop time of 0.00471687 on 1 procs for 1 steps with 424 atoms

run 1 pre no post no
Step v_emin v_elast PotEng 
     186    5444.8513    4952.0196    4952.1722 
     187    5444.8513    4952.0196    4952.3179 
Loop time of 0.0046711 on 1 procs for 1 steps with 424 atoms

run 1 pre no post no
Step v_emin v_elast PotEng 
     187    5444.8513    4952.0196    4952.3179 
     188    5444.8513    4952.0196    4930.4581 
Loop time of 0.00474787 on 1 procs for 1 steps with 424 atoms

variable elast equal $e
variable elast equal 4930.45812936371
run 1 pre no post no
Step v_emin v_elast PotEng 
     188    5444.8513    4930.4581    4930.4581 
     189    5444.8513    4930.4581    4930.6379 
Loop time of 0.00465918 on 1 procs for 1 steps with 424 atoms

run 1 pre no post no
Step v_emin v_elast PotEng 
     189    5444.8513    4930.4581    4930.6379 
     190    5444.8513    4930.4581    4900.0733 
Loop time of 0.0051949 on 1 procs for 1 steps with 424 atoms

variable elast equal $e
variable elast equal 4900.07328410563
run 1 pre no post no
Step v_emin v_elast PotEng 
     190    5444.8513    4900.0733    4900.0733 
     191    5444.8513    4900.0733    4900.6534 
Loop time of 0.00466013 on 1 procs for 1 steps with 424 atoms

run 1 pre no post no
Step v_emin v_elast PotEng 
     191    5444.8513    4900.0733    4900.6534 
     192    5444.8513    4900.0733    4900.1269 
Loop time of 0.0048058 on 1 procs for 1 steps with 424 atoms

run 1 pre no post no
Step v_emin v_elast PotEng 
     192    5444.8513    4900.0733    4900.1269 
     193    5444.8513    4900.0733    4901.8086 
Loop time of 0.004632 on 1 procs for 1 steps with 424 atoms

run 1 pre no post no
Step v_emin v_elast PotEng 
     193    5444.8513    4900.0733    4901.8086 
     194    5444.8513    4900.0733     4900.106 
Loop time of 0.00468206 on 1 procs for 1 steps with 424 atoms

variable elast equal $e
variable elast equal 4900.10598189818
run 1 pre no post no
Step v_emin v_elast PotEng 
     194    5444.8513     4900.106     4900.106 
     195    5444.8513     4900.106    4900.0021 
Loop time of 0.00468087 on 1 procs for 1 steps with 424 atoms

variable elast equal $e
variable elast equal 4900.00207331076
run 1 pre no post no
Step v_emin v_elast PotEng 
     195    5444.8513    4900.0021    4900.0021 
     196    5444.8513    4900.0021    4900.0148 
Loop time of 0.00480199 on 1 procs for 1 steps with 424 atoms

variable elast equal $e
variable elast equal 4900.0148007653
run 1 pre no post no
Step v_emin v_elast PotEng 
     196    5444.8513    4900.0148    4900.0148 
     197    5444.8513    4900.0148    4900.0824 
Loop time of 0.00460792 on 1 procs for 1 steps with 424 atoms

variable elast equal $e
variable elast equal 4900.08241815839
run 1 pre no post no
Step v_emin v_elast PotEng 
     197    5444.8513    4900.0824    4900.0824 
     198    5444.8513    4900.0824    4900.3581 
Loop time of 0.00471497 on 1 procs for 1 steps with 424 atoms

run 1 pre no post no
Step v_emin v_elast PotEng 
     198    5444.8513    4900.0824    4900.3581 
     199    5444.8513    4900.0824    4867.4108 
Loop time of 0.00460887 on 1 procs for 1 steps with 424 atoms

variable elast equal $e
variable elast equal 4867.41082598177
run 1 pre no post no
Step v_emin v_elast PotEng 
     199    5444.8513    4867.4108    4867.4108 
     200    5444.8513    4867.4108    4867.9612 
Loop time of 0.00529385 on 1 procs for 1 steps with 424 atoms

run 1 pre no post no
Step v_emin v_elast PotEng 
     200    5444.8513    4867.4108    4867.9612 
     201    5444.8513    4867.4108    4867.5879 
Loop time of 0.00460911 on 1 procs for 1 steps with 424 atoms

run 1 pre no post no
Step v_emin v_elast PotEng 
     201    5444.8513    4867.4108    4867.5879 
     202    5444.8513    4867.4108    4943.5115 
Loop time of 0.00468493 on 1 procs for 1 steps with 424 atoms

run 1 pre no post no
Step v_emin v_elast PotEng 
     202    5444.8513    4867.4108    4943.5115 
     203    5444.8513    4867.4108    4867.5655 
Loop time of 0.00460696 on 1 procs for 1 steps with 424 atoms

run 1 pre no post no
Step v_emin v_elast PotEng 
     203    5444.8513    4867.4108    4867.5655 
     204    5444.8513    4867.4108    4867.8515 
Loop time of 0.00477409 on 1 procs for 1 steps with 424 atoms

run 1 pre no post no
Step v_emin v_elast PotEng 
     204    5444.8513    4867.4108    4867.8515 
     205    5444.8513    4867.4108    4867.7358 
Loop time of 0.00460982 on 1 procs for 1 steps with 424 atoms

run 1 pre no post no
Step v_emin v_elast PotEng 
     205    5444.8513    4867.4108    4867.7358 
     206    5444.8513    4867.4108     4867.606 
Loop time of 0.00464511 on 1 procs for 1 steps with 424 atoms

run 1 pre no post no
Step v_emin v_elast PotEng 
     206    5444.8513    4867.4108     4867.606 
     207    5444.8513    4867.4108    4867.6744 
Loop time of 0.0046761 on 1 procs for 1 steps with 424 atoms

run 1 pre no post no
Step v_emin v_elast PotEng 
     207    5444.8513    4867.4108    4867.6744 
     208    5444.8513    4867.4108    4867.7186 
Loop time of 0.00476193 on 1 procs for 1 steps with 424 atoms

run 1 pre no post no
Step v_emin v_elast PotEng 
     208    5444.8513    4867.4108    4867.7186 
     209    5444.8513    4867.4108    4867.4141 
Loop time of 0.004668 on 1 procs for 1 steps with 424 atoms

variable elast equal $e
variable elast equal 4867.41413086569
run 1 pre no post no
Step v_emin v_elast PotEng 
     209    5444.8513    4867.4141    4867.4141 
     210    5444.8513    4867.4141    4867.6023 
Loop time of 0.00514078 on 1 procs for 1 steps with 424 atoms

run 1 pre no post no
Step v_emin v_elast PotEng 
     210    5444.8513    4867.4141    4867.6023 
     211    5444.8513    4867.4141    4868.0996 
Loop time of 0.00466704 on 1 procs for 1 steps with 424 atoms

run 1 pre no post no
Step v_emin v_elast PotEng 
     211    5444.8513    4867.4141    4868.0996 
     212    5444.8513    4867.4141    4867.4276 
Loop time of 0.0048058 on 1 procs for 1 steps with 424 atoms

variable elast equal $e
variable elast equal 4867.42761621574
run 1 pre no post no
Step v_emin v_elast PotEng 
     212    5444.8513    4867.4276    4867.4276 
     213    5444.8513    4867.4276    4867.5602 
Loop time of 0.00466204 on 1 procs for 1 steps with 424 atoms

run 1 pre no post no
Step v_emin v_elast PotEng 
     213    5444.8513    4867.4276    4867.5602 
     214    5444.8513    4867.4276    4867.7018 
Loop time of 0.00464916 on 1 procs for 1 steps with 424 atoms

run 1 pre no post no
Step v_emin v_elast PotEng 
     214    5444.8513    4867.4276    4867.7018 
     215    5444.8513    4867.4276    4867.6943 
Loop time of 0.00474906 on 1 procs for 1 steps with 424 atoms

variable elast equal $e
variable elast equal 4867.69428054372
run 1 pre no post no
Step v_emin v_elast PotEng 
     215    5444.8513    4867.6943    4867.6943 
     216    5444.8513    4867.6943    4868.3178 
Loop time of 0.004807 on 1 procs for 1 steps with 424 atoms

run 1 pre no post no
Step v_emin v_elast PotEng 
     216    5444.8513    4867.6943    4868.3178 
     217    5444.8513    4867.6943     4868.097 
Loop time of 0.00469398 on 1 procs for 1 steps with 424 atoms

run 1 pre no post no
Step v_emin v_elast PotEng 
     217    5444.8513    4867.6943     4868.097 
     218    5444.8513    4867.6943    4795.1692 
Loop time of 0.00466108 on 1 procs for 1 steps with 424 atoms

variable elast equal $e
variable elast equal 4795.16918639379
run 1 pre no post no
Step v_emin v_elast PotEng 
     218    5444.8513    4795.1692    4795.1692 
     219    5444.8513    4795.1692    4795.2632 
Loop time of 0.00462699 on 1 procs for 1 steps with 424 atoms

run 1 pre no post no
Step v_emin v_elast PotEng 
     219    5444.8513    4795.1692    4795.2632 
     220    5444.8513    4795.1692    4795.3624 
Loop time of 0.00541496 on 1 procs for 1 steps with 424 atoms

run 1 pre no post no
Step v_emin v_elast PotEng 
     220    5444.8513    4795.1692    4795.3624 
     221    5444.8513    4795.1692    4795.2817 
Loop time of 0.00465894 on 1 procs for 1 steps with 424 atoms

variable elast equal $e
variable elast equal 4795.28172053951
run 1 pre no post no
Step v_emin v_elast PotEng 
     221    5444.8513    4795.2817    4795.2817 
     222    5444.8513    4795.2817     4795.393 
Loop time of 0.00467491 on 1 procs for 1 steps with 424 atoms

variable elast equal $e
variable elast equal 4795.39297837691
run 1 pre no post no
Step v_emin v_elast PotEng 
     222    5444.8513     4795.393     4795.393 
     223    5444.8513     4795.393    4793.5455 
Loop time of 0.00462413 on 1 procs for 1 steps with 424 atoms

variable elast equal $e
variable elast equal 4793.54551110509
run 1 pre no post no
Step v_emin v_elast PotEng 
     223    5444.8513    4793.5455    4793.5455 
     224    5444.8513    4793.5455    4793.3168 
Loop time of 0.00480509 on 1 procs for 1 steps with 424 atoms

variable elast equal $e
variable elast equal 4793.3167764426
run 1 pre no post no
Step v_emin v_elast PotEng 
     224    5444.8513    4793.3168    4793.3168 
     225    5444.8513    4793.3168    4794.0771 
Loop time of 0.00463486 on 1 procs for 1 steps with 424 atoms

run 1 pre no post no
Step v_emin v_elast PotEng 
     225    5444.8513    4793.3168    4794.0771 
     226    5444.8513    4793.3168    4793.2238 
Loop time of 0.00472307 on 1 procs for 1 steps with 424 atoms

variable elast equal $e
variable elast equal 4793.22384957133
run 1 pre no post no
Step v_emin v_elast PotEng 
     226    5444.8513    4793.2238    4793.2238 
     227    5444.8513    4793.2238    4793.3216 
Loop time of 0.00464106 on 1 procs for 1 steps with 424 atoms

run 1 pre no post no
Step v_emin v_elast PotEng 
     227    5444.8513    4793.2238    4793.3216 
     228    5444.8513    4793.2238      4793.38 
Loop time of 0.00492692 on 1 procs for 1 steps with 424 atoms

run 1 pre no post no
Step v_emin v_elast PotEng 
     228    5444.8513    4793.2238      4793.38 
     229    5444.8513    4793.2238    4778.6468 
Loop time of 0.00464106 on 1 procs for 1 steps with 424 atoms

variable elast equal $e
variable elast equal 4778.64679076784
run 1 pre no post no
Step v_emin v_elast PotEng 
     229    5444.8513    4778.6468    4778.6468 
     230    5444.8513    4778.6468    4778.4873 
Loop time of 0.00516105 on 1 procs for 1 steps with 424 atoms

variable elast equal $e
variable elast equal 4778.48730092574
run 1 pre no post no
Step v_emin v_elast PotEng 
     230    5444.8513    4778.4873    4778.4873 
     231    5444.8513    4778.4873    4735.7297 
Loop time of 0.00468898 on 1 procs for 1 steps with 424 atoms

variable elast equal $e
variable elast equal 4735.72968873991
run 1 pre no post no
Step v_emin v_elast PotEng 
     231    5444.8513    4735.7297    4735.7297 
     232    5444.8513    4735.7297    4735.8131 
Loop time of 0.00478697 on 1 procs for 1 steps with 424 atoms

run 1 pre no post no
Step v_emin v_elast PotEng 
     232    5444.8513    4735.7297    4735.8131 
     233    5444.8513    4735.7297     4735.751 
Loop time of 0.00466895 on 1 procs for 1 steps with 424 atoms

variable elast equal $e
variable elast equal 4735.75095862022
run 1 pre no post no
Step v_emin v_elast PotEng 
     233    5444.8513     4735.751     4735.751 
     234    5444.8513     4735.751    4735.7534 
Loop time of 0.00466418 on 1 procs for 1 steps with 424 atoms

variable elast equal $e
variable elast equal 4735.75340401726
run 1 pre no post no
Step v_emin v_elast PotEng 
     234    5444.8513    4735.7534    4735.7534 
     235    5444.8513    4735.7534    4734.5763 
Loop time of 0.00468898 on 1 procs for 1 steps with 424 atoms

variable elast equal $e
variable elast equal 4734.57625644919
run 1 pre no post no
Step v_emin v_elast PotEng 
     235    5444.8513    4734.5763    4734.5763 
     236    5444.8513    4734.5763    4735.1953 
Loop time of 0.00481391 on 1 procs for 1 steps with 424 atoms

run 1 pre no post no
Step v_emin v_elast PotEng 
     236    5444.8513    4734.5763    4735.1953 
     237    5444.8513    4734.5763    4734.7487 
Loop time of 0.00469208 on 1 procs for 1 steps with 424 atoms

run 1 pre no post no
Step v_emin v_elast PotEng 
     237    5444.8513    4734.5763    4734.7487 
     238    5444.8513    4734.5763     4734.644 
Loop time of 0.00466013 on 1 procs for 1 steps with 424 atoms

run 1 pre no post no
Step v_emin v_elast PotEng 
     238    5444.8513    4734.5763     4734.644 
     239    5444.8513    4734.5763    4734.6753 
Loop time of 0.00468707 on 1 procs for 1 steps with 424 atoms

variable elast equal $e
variable elast equal 4734.67531789658
run 1 pre no post no
Step v_emin v_elast PotEng 
     239    5444.8513    4734.6753    4734.6753 
     240    5444.8513    4734.6753    4734.9596 
Loop time of 0.005337 on 1 procs for 1 steps with 424 atoms

run 1 pre no post no
Step v_emin v_elast PotEng 
     240    5444.8513    4734.6753    4734.9596 
     241    5444.8513    4734.6753    4734.7881 
Loop time of 0.00469184 on 1 procs for 1 steps with 424 atoms

variable elast equal $e
variable elast equal 4734.7881195321
run 1 pre no post no
Step v_emin v_elast PotEng 
     241    5444.8513    4734.7881    4734.7881 
     242    5444.8513    4734.7881    4734.3559 
Loop time of 0.00465703 on 1 procs for 1 steps with 424 atoms

variable elast equal $e
variable elast equal 4734.35589773267
run 1 pre no post no
Step v_emin v_elast PotEng 
     242    5444.8513    4734.3559    4734.3559 
     243    5444.8513    4734.3559    4734.5753 
Loop time of 0.00468588 on 1 procs for 1 steps with 424 atoms

run 1 pre no post no
Step v_emin v_elast PotEng 
     243    5444.8513    4734.3559    4734.5753 
     244    5444.8513    4734.3559    4734.2247 
Loop time of 0.00479102 on 1 procs for 1 steps with 424 atoms

variable elast equal $e
variable elast equal 4734.22467047027
run 1 pre no post no
Step v_emin v_elast PotEng 
     244    5444.8513    4734.2247    4734.2247 
     245    5444.8513    4734.2247    4735.6537 
Loop time of 0.00468683 on 1 procs for 1 steps with 424 atoms

run 1 pre no post no
Step v_emin v_elast PotEng 
     245    5444.8513    4734.2247    4735.6537 
     246    5444.8513    4734.2247    4734.3956 
Loop time of 0.00464892 on 1 procs for 1 steps with 424 atoms

run 1 pre no post no
Step v_emin v_elast PotEng 
     246    5444.8513    4734.2247    4734.3956 
     247    5444.8513    4734.2247    4734.9972 
Loop time of 0.004637 on 1 procs for 1 steps with 424 atoms

run 1 pre no post no
Step v_emin v_elast PotEng 
     247    5444.8513    4734.2247    4734.9972 
     248    5444.8513    4734.2247    4735.2993 
Loop time of 0.00488305 on 1 procs for 1 steps with 424 atoms

run 1 pre no post no
Step v_emin v_elast PotEng 
     248    5444.8513    4734.2247    4735.2993 
     249    5444.8513    4734.2247    4734.2434 
Loop time of 0.0046401 on 1 procs for 1 steps with 424 atoms

run 1 pre no post no
Step v_emin v_elast PotEng 
     249    5444.8513    4734.2247    4734.2434 
     250    5444.8513    4734.2247    4734.3545 
Loop time of 0.00530291 on 1 procs for 1 steps with 424 atoms

run 1 pre no post no
Step v_emin v_elast PotEng 
     250    5444.8513    4734.2247    4734.3545 
     251    5444.8513    4734.2247    4734.9984 
Loop time of 0.00465512 on 1 procs for 1 steps with 424 atoms

run 1 pre no post no
Step v_emin v_elast PotEng 
     251    5444.8513    4734.2247    4734.9984 
     252    5444.8513    4734.2247    4734.6597 
Loop time of 0.00487113 on 1 procs for 1 steps with 424 atoms

run 1 pre no post no
Step v_emin v_elast PotEng 
     252    5444.8513    4734.2247    4734.6597 
     253    5444.8513    4734.2247    4734.0643 
Loop time of 0.00487399 on 1 procs for 1 steps with 424 atoms

variable elast equal $e
variable elast equal 4734.0643005071
run 1 pre no post no
Step v_emin v_elast PotEng 
     253    5444.8513    4734.0643    4734.0643 
     254    5444.8513    4734.0643    4734.2192 
Loop time of 0.00471592 on 1 procs for 1 steps with 424 atoms

run 1 pre no post no
Step v_emin v_elast PotEng 
     254    5444.8513    4734.0643    4734.2192 
     255    5444.8513    4734.0643    4734.1691 
Loop time of 0.00464702 on 1 procs for 1 steps with 424 atoms

run 1 pre no post no
Step v_emin v_elast PotEng 
     255    5444.8513    4734.0643    4734.1691 
     256    5444.8513    4734.0643    4734.0113 
Loop time of 0.00487494 on 1 procs for 1 steps with 424 atoms

variable elast equal $e
variable elast equal 4734.01127358588
run 1 pre no post no
Step v_emin v_elast PotEng 
     256    5444.8513    4734.0113    4734.0113 
     257    5444.8513    4734.0113     4733.886 
Loop time of 0.00464392 on 1 procs for 1 steps with 424 atoms

variable elast equal $e
variable elast equal 4733.88604426648
run 1 pre no post no
Step v_emin v_elast PotEng 
     257    5444.8513     4733.886     4733.886 
     258    5444.8513     4733.886     4733.495 
Loop time of 0.00471997 on 1 procs for 1 steps with 424 atoms

variable elast equal $e
variable elast equal 4733.49495980054
run 1 pre no post no
Step v_emin v_elast PotEng 
     258    5444.8513     4733.495     4733.495 
     259    5444.8513     4733.495    4734.0233 
Loop time of 0.00468707 on 1 procs for 1 steps with 424 atoms

run 1 pre no post no
Step v_emin v_elast PotEng 
     259    5444.8513     4733.495    4734.0233 
     260    5444.8513     4733.495    4733.0556 
Loop time of 0.00532794 on 1 procs for 1 steps with 424 atoms

variable elast equal $e
variable elast equal 4733.05560845525
run 1 pre no post no
Step v_emin v_elast PotEng 
     260    5444.8513    4733.0556    4733.0556 
     261    5444.8513    4733.0556    4733.5776 
Loop time of 0.00474405 on 1 procs for 1 steps with 424 atoms

run 1 pre no post no
Step v_emin v_elast PotEng 
     261    5444.8513    4733.0556    4733.5776 
     262    5444.8513    4733.0556    4733.1387 
Loop time of 0.00471997 on 1 procs for 1 steps with 424 atoms

run 1 pre no post no
Step v_emin v_elast PotEng 
     262    5444.8513    4733.0556    4733.1387 
     263    5444.8513    4733.0556    4732.9647 
Loop time of 0.00465417 on 1 procs for 1 steps with 424 atoms

variable elast equal $e
variable elast equal 4732.96468200108
run 1 pre no post no
Step v_emin v_elast PotEng 
     263    5444.8513    4732.9647    4732.9647 
     264    5444.8513    4732.9647    4732.8359 
Loop time of 0.00483108 on 1 procs for 1 steps with 424 atoms

variable elast equal $e
variable elast equal 4732.83591632881
run 1 pre no post no
Step v_emin v_elast PotEng 
     264    5444.8513    4732.8359    4732.8359 
     265    5444.8513    4732.8359    4690.2298 
Loop time of 0.00472188 on 1 procs for 1 steps with 424 atoms

variable elast equal $e
variable elast equal 4690.22979895971
run 1 pre no post no
Step v_emin v_elast PotEng 
     265    5444.8513    4690.2298    4690.2298 
     266    5444.8513    4690.2298    4690.0519 
Loop time of 0.00471997 on 1 procs for 1 steps with 424 atoms

variable elast equal $e
variable elast equal 4690.05187280066
run 1 pre no post no
Step v_emin v_elast PotEng 
     266    5444.8513    4690.0519    4690.0519 
     267    5444.8513    4690.0519    4690.0384 
Loop time of 0.00475121 on 1 procs for 1 steps with 424 atoms

variable elast equal $e
variable elast equal 4690.03839935362
run 1 pre no post no
Step v_emin v_elast PotEng 
     267    5444.8513    4690.0384    4690.0384 
     268    5444.8513    4690.0384    4689.8507 
Loop time of 0.00486112 on 1 procs for 1 steps with 424 atoms

variable elast equal $e
variable elast equal 4689.85073225479
run 1 pre no post no
Step v_emin v_elast PotEng 
     268    5444.8513    4689.8507    4689.8507 
     269    5444.8513    4689.8507    4689.9962 
Loop time of 0.00476313 on 1 procs for 1 steps with 424 atoms

run 1 pre no post no
Step v_emin v_elast PotEng 
     269    5444.8513    4689.8507    4689.9962 
     270    5444.8513    4689.8507    4689.9176 
Loop time of 0.00522804 on 1 procs for 1 steps with 424 atoms

run 1 pre no post no
Step v_emin v_elast PotEng 
     270    5444.8513    4689.8507    4689.9176 
     271    5444.8513    4689.8507    4689.9515 
Loop time of 0.00474715 on 1 procs for 1 steps with 424 atoms

run 1 pre no post no
Step v_emin v_elast PotEng 
     271    5444.8513    4689.8507    4689.9515 
     272    5444.8513    4689.8507    4691.0767 
Loop time of 0.00486612 on 1 procs for 1 steps with 424 atoms

run 1 pre no post no
Step v_emin v_elast PotEng 
     272    5444.8513    4689.8507    4691.0767 
     273    5444.8513    4689.8507    4690.1172 
Loop time of 0.00478315 on 1 procs for 1 steps with 424 atoms

run 1 pre no post no
Step v_emin v_elast PotEng 
     273    5444.8513    4689.8507    4690.1172 
     274    5444.8513    4689.8507    4690.1431 
Loop time of 0.00474405 on 1 procs for 1 steps with 424 atoms

run 1 pre no post no
Step v_emin v_elast PotEng 
     274    5444.8513    4689.8507    4690.1431 
     275    5444.8513    4689.8507    4689.8892 
Loop time of 0.00475907 on 1 procs for 1 steps with 424 atoms

variable elast equal $e
variable elast equal 4689.8891614624
run 1 pre no post no
Step v_emin v_elast PotEng 
     275    5444.8513    4689.8892    4689.8892 
     276    5444.8513    4689.8892    4690.0425 
Loop time of 0.00485516 on 1 procs for 1 steps with 424 atoms

variable elast equal $e
variable elast equal 4690.04254169868
run 1 pre no post no
Step v_emin v_elast PotEng 
     276    5444.8513    4690.0425    4690.0425 
     277    5444.8513    4690.0425    4689.8879 
Loop time of 0.00477409 on 1 procs for 1 steps with 424 atoms

variable elast equal $e
variable elast equal 4689.88791776411
run 1 pre no post no
Step v_emin v_elast PotEng 
     277    5444.8513    4689.8879    4689.8879 
     278    5444.8513    4689.8879    4689.9448 
Loop time of 0.00474882 on 1 procs for 1 steps with 424 atoms

variable elast equal $e
variable elast equal 4689.94478085191
run 1 pre no post no
Step v_emin v_elast PotEng 
     278    5444.8513    4689.9448    4689.9448 
     279    5444.8513    4689.9448    4689.9317 
Loop time of 0.00475502 on 1 procs for 1 steps with 424 atoms

variable elast equal $e
variable elast equal 4689.93174662887
run 1 pre no post no
Step v_emin v_elast PotEng 
     279    5444.8513    4689.9317    4689.9317 
     280    5444.8513    4689.9317    4689.4603 
Loop time of 0.00540113 on 1 procs for 1 steps with 424 atoms

variable elast equal $e
variable elast equal 4689.46030510595
run 1 pre no post no
Step v_emin v_elast PotEng 
     280    5444.8513    4689.4603    4689.4603 
     281    5444.8513    4689.4603    4689.5518 
Loop time of 0.00481892 on 1 procs for 1 steps with 424 atoms

run 1 pre no post no
Step v_emin v_elast PotEng 
     281    5444.8513    4689.4603    4689.5518 
     282    5444.8513    4689.4603    4689.6029 
Loop time of 0.00482917 on 1 procs for 1 steps with 424 atoms

run 1 pre no post no
Step v_emin v_elast PotEng 
     282    5444.8513    4689.4603    4689.6029 
     283    5444.8513    4689.4603    4671.7607 
Loop time of 0.00482297 on 1 procs for 1 steps with 424 atoms

variable elast equal $e
variable elast equal 4671.76072268688
run 1 pre no post no
Step v_emin v_elast PotEng 
     283    5444.8513    4671.7607    4671.7607 
     284    5444.8513    4671.7607     4749.418 
Loop time of 0.00487399 on 1 procs for 1 steps with 424 atoms

run 1 pre no post no
Step v_emin v_elast PotEng 
     284    5444.8513    4671.7607     4749.418 
     285    5444.8513    4671.7607    4672.2949 
Loop time of 0.00482917 on 1 procs for 1 steps with 424 atoms

run 1 pre no post no
Step v_emin v_elast PotEng 
     285    5444.8513    4671.7607    4672.2949 
     286    5444.8513    4671.7607    4671.4853 
Loop time of 0.004807 on 1 procs for 1 steps with 424 atoms

variable elast equal $e
variable elast equal 4671.48526696451
run 1 pre no post no
Step v_emin v_elast PotEng 
     286    5444.8513    4671.4853    4671.4853 
     287    5444.8513    4671.4853    4671.5215 
Loop time of 0.00478005 on 1 procs for 1 steps with 424 atoms

run 1 pre no post no
Step v_emin v_elast PotEng 
     287    5444.8513    4671.4853    4671.5215 
     288    5444.8513    4671.4853    4671.6961 
Loop time of 0.00488806 on 1 procs for 1 steps with 424 atoms

run 1 pre no post no
Step v_emin v_elast PotEng 
     288    5444.8513    4671.4853    4671.6961 
     289    5444.8513    4671.4853    4671.6111 
Loop time of 0.00477219 on 1 procs for 1 steps with 424 atoms

run 1 pre no post no
Step v_emin v_elast PotEng 
     289    5444.8513    4671.4853    4671.6111 
     290    5444.8513    4671.4853    4670.3978 
Loop time of 0.00523782 on 1 procs for 1 steps with 424 atoms

variable elast equal $e
variable elast equal 4670.39776297215
run 1 pre no post no
Step v_emin v_elast PotEng 
     290    5444.8513    4670.3978    4670.3978 
     291    5444.8513    4670.3978    4670.4654 
Loop time of 0.00482512 on 1 procs for 1 steps with 424 atoms

run 1 pre no post no
Step v_emin v_elast PotEng 
     291    5444.8513    4670.3978    4670.4654 
     292    5444.8513    4670.3978    4679.8478 
Loop time of 0.00488782 on 1 procs for 1 steps with 424 atoms

run 1 pre no post no
Step v_emin v_elast PotEng 
     292    5444.8513    4670.3978    4679.8478 
     293    5444.8513    4670.3978    4672.7977 
Loop time of 0.00479102 on 1 procs for 1 steps with 424 atoms

run 1 pre no post no
Step v_emin v_elast PotEng 
     293    5444.8513    4670.3978    4672.7977 
     294    5444.8513    4670.3978    4670.4823 
Loop time of 0.00473809 on 1 procs for 1 steps with 424 atoms

run 1 pre no post no
Step v_emin v_elast PotEng 
     294    5444.8513    4670.3978    4670.4823 
     295    5444.8513    4670.3978     4670.232 
Loop time of 0.00481391 on 1 procs for 1 steps with 424 atoms

variable elast equal $e
variable elast equal 4670.23199133319
run 1 pre no post no
Step v_emin v_elast PotEng 
     295    5444.8513     4670.232     4670.232 
     296    5444.8513     4670.232    4670.3973 
Loop time of 0.00489306 on 1 procs for 1 steps with 424 atoms

variable elast equal $e
variable elast equal 4670.39726457269
run 1 pre no post no
Step v_emin v_elast PotEng 
     296    5444.8513    4670.3973    4670.3973 
     297    5444.8513    4670.3973    4681.1585 
Loop time of 0.00478911 on 1 procs for 1 steps with 424 atoms

run 1 pre no post no
Step v_emin v_elast PotEng 
     297    5444.8513    4670.3973    4681.1585 
     298    5444.8513    4670.3973    4670.6172 
Loop time of 0.00477886 on 1 procs for 1 steps with 424 atoms

run 1 pre no post no
Step v_emin v_elast PotEng 
     298    5444.8513    4670.3973    4670.6172 
     299    5444.8513    4670.3973    4670.5789 
Loop time of 0.00479603 on 1 procs for 1 steps with 424 atoms

run 1 pre no post no
Step v_emin v_elast PotEng 
     299    5444.8513    4670.3973    4670.5789 
     300    5444.8513    4670.3973    4671.0409 
Loop time of 0.00542784 on 1 procs for 1 steps with 424 atoms

run 1 pre no post no
Step v_emin v_elast PotEng 
     300    5444.8513    4670.3973    4671.0409 
     301    5444.8513    4670.3973    4682.5377 
Loop time of 0.00479102 on 1 procs for 1 steps with 424 atoms

run 1 pre no post no
Step v_emin v_elast PotEng 
     301    5444.8513    4670.3973    4682.5377 
     302    5444.8513    4670.3973    4670.6077 
Loop time of 0.00487781 on 1 procs for 1 steps with 424 atoms

run 1 pre no post no
Step v_emin v_elast PotEng 
     302    5444.8513    4670.3973    4670.6077 
     303    5444.8513    4670.3973    4670.4462 
Loop time of 0.00478911 on 1 procs for 1 steps with 424 atoms

variable elast equal $e
variable elast equal 4670.44616188282
run 1 pre no post no
Step v_emin v_elast PotEng 
     303    5444.8513    4670.4462    4670.4462 
     304    5444.8513    4670.4462    4670.4935 
Loop time of 0.00490713 on 1 procs for 1 steps with 424 atoms

variable elast equal $e
variable elast equal 4670.49353538255
run 1 pre no post no
Step v_emin v_elast PotEng 
     304    5444.8513    4670.4935    4670.4935 
     305    5444.8513    4670.4935     4671.345 
Loop time of 0.00480795 on 1 procs for 1 steps with 424 atoms

run 1 pre no post no
Step v_emin v_elast PotEng 
     305    5444.8513    4670.4935     4671.345 
     306    5444.8513    4670.4935    4669.6899 
Loop time of 0.00475907 on 1 procs for 1 steps with 424 atoms

variable elast equal $e
variable elast equal 4669.68990192606
run 1 pre no post no
Step v_emin v_elast PotEng 
     306    5444.8513    4669.6899    4669.6899 
     307    5444.8513    4669.6899    4669.9393 
Loop time of 0.0048821 on 1 procs for 1 steps with 424 atoms

run 1 pre no post no
Step v_emin v_elast PotEng 
     307    5444.8513    4669.6899    4669.9393 
     308    5444.8513    4669.6899    4670.2527 
Loop time of 0.00491095 on 1 procs for 1 steps with 424 atoms

run 1 pre no post no
Step v_emin v_elast PotEng 
     308    5444.8513    4669.6899    4670.2527 
     309    5444.8513    4669.6899    4669.7284 
Loop time of 0.00473499 on 1 procs for 1 steps with 424 atoms

variable elast equal $e
variable elast equal 4669.72838783817
run 1 pre no post no
Step v_emin v_elast PotEng 
     309    5444.8513    4669.7284    4669.7284 
     310    5444.8513    4669.7284     4672.823 
Loop time of 0.0052669 on 1 procs for 1 steps with 424 atoms

run 1 pre no post no
Step v_emin v_elast PotEng 
     310    5444.8513    4669.7284     4672.823 
     311    5444.8513    4669.7284     4669.016 
Loop time of 0.0047431 on 1 procs for 1 steps with 424 atoms

variable elast equal $e
variable elast equal 4669.01599039505
run 1 pre no post no
Step v_emin v_elast PotEng 
     311    5444.8513     4669.016     4669.016 
     312    5444.8513     4669.016    4669.4862 
Loop time of 0.00494385 on 1 procs for 1 steps with 424 atoms

run 1 pre no post no
Step v_emin v_elast PotEng 
     312    5444.8513     4669.016    4669.4862 
     313    5444.8513     4669.016    4669.7211 
Loop time of 0.00473905 on 1 procs for 1 steps with 424 atoms

run 1 pre no post no
Step v_emin v_elast PotEng 
     313    5444.8513     4669.016    4669.7211 
     314    5444.8513     4669.016    4669.1575 
Loop time of 0.00480914 on 1 procs for 1 steps with 424 atoms

run 1 pre no post no
Step v_emin v_elast PotEng 
     314    5444.8513     4669.016    4669.1575 
     315    5444.8513     4669.016    4668.9325 
Loop time of 0.00472784 on 1 procs for 1 steps with 424 atoms

variable elast equal $e
variable elast equal 4668.93249590599
run 1 pre no post no
Step v_emin v_elast PotEng 
     315    5444.8513    4668.9325    4668.9325 
     316    5444.8513    4668.9325    4670.2327 
Loop time of 0.00489306 on 1 procs for 1 steps with 424 atoms

run 1 pre no post no
Step v_emin v_elast PotEng 
     316    5444.8513    4668.9325    4670.2327 
     317    5444.8513    4668.9325      4669.06 
Loop time of 0.00473809 on 1 procs for 1 steps with 424 atoms

run 1 pre no post no
Step v_emin v_elast PotEng 
     317    5444.8513    4668.9325      4669.06 
     318    5444.8513    4668.9325    4669.2099 
Loop time of 0.00482297 on 1 procs for 1 steps with 424 atoms

run 1 pre no post no
Step v_emin v_elast PotEng 
     318    5444.8513    4668.9325    4669.2099 
     319    5444.8513    4668.9325    4670.8053 
Loop time of 0.00473619 on 1 procs for 1 steps with 424 atoms

run 1 pre no post no
Step v_emin v_elast PotEng 
     319    5444.8513    4668.9325    4670.8053 
     320    5444.8513    4668.9325    4669.2246 
Loop time of 0.00545692 on 1 procs for 1 steps with 424 atoms

run 1 pre no post no
Step v_emin v_elast PotEng 
     320    5444.8513    4668.9325    4669.2246 
     321    5444.8513    4668.9325    4663.3931 
Loop time of 0.00474191 on 1 procs for 1 steps with 424 atoms

variable elast equal $e
variable elast equal 4663.39314430044
run 1 pre no post no
Step v_emin v_elast PotEng 
     321    5444.8513    4663.3931    4663.3931 
     322    5444.8513    4663.3931    4663.4006 
[...]
    9918    5444.8513   -1903.8532    -1903.405 
Loop time of 0.00617599 on 1 procs for 1 steps with 424 atoms

run 1 pre no post no
Step v_emin v_elast PotEng 
    9918    5444.8513   -1903.8532    -1903.405 
    9919    5444.8513   -1903.8532   -1902.9044 
Loop time of 0.00620198 on 1 procs for 1 steps with 424 atoms

run 1 pre no post no
Step v_emin v_elast PotEng 
    9919    5444.8513   -1903.8532   -1902.9044 
    9920    5444.8513   -1903.8532   -1903.7634 
Loop time of 0.00662899 on 1 procs for 1 steps with 424 atoms

run 1 pre no post no
Step v_emin v_elast PotEng 
    9920    5444.8513   -1903.8532   -1903.7634 
    9921    5444.8513   -1903.8532    -1903.975 
Loop time of 0.00619102 on 1 procs for 1 steps with 424 atoms

variable elast equal $e
variable elast equal -1903.97502182554
run 1 pre no post no
Step v_emin v_elast PotEng 
    9921    5444.8513    -1903.975    -1903.975 
    9922    5444.8513    -1903.975   -1903.6583 
Loop time of 0.00612211 on 1 procs for 1 steps with 424 atoms

run 1 pre no post no
Step v_emin v_elast PotEng 
    9922    5444.8513    -1903.975   -1903.6583 
    9923    5444.8513    -1903.975   -1903.4384 
Loop time of 0.00685 on 1 procs for 1 steps with 424 atoms

run 1 pre no post no
Step v_emin v_elast PotEng 
    9923    5444.8513    -1903.975   -1903.4384 
    9924    5444.8513    -1903.975   -1903.6985 
Loop time of 0.00634098 on 1 procs for 1 steps with 424 atoms

run 1 pre no post no
Step v_emin v_elast PotEng 
    9924    5444.8513    -1903.975   -1903.6985 
    9925    5444.8513    -1903.975   -1902.3803 
Loop time of 0.00616002 on 1 procs for 1 steps with 424 atoms

run 1 pre no post no
Step v_emin v_elast PotEng 
    9925    5444.8513    -1903.975   -1902.3803 
    9926    5444.8513    -1903.975   -1904.0377 
Loop time of 0.00616693 on 1 procs for 1 steps with 424 atoms

variable elast equal $e
variable elast equal -1904.03767679983
run 1 pre no post no
Step v_emin v_elast PotEng 
    9926    5444.8513   -1904.0377   -1904.0377 
    9927    5444.8513   -1904.0377   -1903.4402 
Loop time of 0.00615215 on 1 procs for 1 steps with 424 atoms

run 1 pre no post no
Step v_emin v_elast PotEng 
    9927    5444.8513   -1904.0377   -1903.4402 
    9928    5444.8513   -1904.0377   -1903.2821 
Loop time of 0.00618696 on 1 procs for 1 steps with 424 atoms

run 1 pre no post no
Step v_emin v_elast PotEng 
    9928    5444.8513   -1904.0377   -1903.2821 
    9929    5444.8513   -1904.0377   -1903.5271 
Loop time of 0.00615096 on 1 procs for 1 steps with 424 atoms

run 1 pre no post no
Step v_emin v_elast PotEng 
    9929    5444.8513   -1904.0377   -1903.5271 
    9930    5444.8513   -1904.0377   -1904.0106 
Loop time of 0.00663805 on 1 procs for 1 steps with 424 atoms

run 1 pre no post no
Step v_emin v_elast PotEng 
    9930    5444.8513   -1904.0377   -1904.0106 
    9931    5444.8513   -1904.0377   -1903.7175 
Loop time of 0.00618505 on 1 procs for 1 steps with 424 atoms

run 1 pre no post no
Step v_emin v_elast PotEng 
    9931    5444.8513   -1904.0377   -1903.7175 
    9932    5444.8513   -1904.0377   -1903.9241 
Loop time of 0.00623894 on 1 procs for 1 steps with 424 atoms

run 1 pre no post no
Step v_emin v_elast PotEng 
    9932    5444.8513   -1904.0377   -1903.9241 
    9933    5444.8513   -1904.0377   -1903.9301 
Loop time of 0.00620198 on 1 procs for 1 steps with 424 atoms

run 1 pre no post no
Step v_emin v_elast PotEng 
    9933    5444.8513   -1904.0377   -1903.9301 
    9934    5444.8513   -1904.0377   -1903.4633 
Loop time of 0.00618005 on 1 procs for 1 steps with 424 atoms

run 1 pre no post no
Step v_emin v_elast PotEng 
    9934    5444.8513   -1904.0377   -1903.4633 
    9935    5444.8513   -1904.0377   -1902.2204 
Loop time of 0.00611591 on 1 procs for 1 steps with 424 atoms

run 1 pre no post no
Step v_emin v_elast PotEng 
    9935    5444.8513   -1904.0377   -1902.2204 
    9936    5444.8513   -1904.0377   -1903.4513 
Loop time of 0.00619292 on 1 procs for 1 steps with 424 atoms

run 1 pre no post no
Step v_emin v_elast PotEng 
    9936    5444.8513   -1904.0377   -1903.4513 
    9937    5444.8513   -1904.0377   -1902.8601 
Loop time of 0.0061481 on 1 procs for 1 steps with 424 atoms

run 1 pre no post no
Step v_emin v_elast PotEng 
    9937    5444.8513   -1904.0377   -1902.8601 
    9938    5444.8513   -1904.0377   -1904.1171 
Loop time of 0.00617695 on 1 procs for 1 steps with 424 atoms

variable elast equal $e
variable elast equal -1904.1170589046
run 1 pre no post no
Step v_emin v_elast PotEng 
    9938    5444.8513   -1904.1171   -1904.1171 
    9939    5444.8513   -1904.1171   -1904.1565 
Loop time of 0.00633883 on 1 procs for 1 steps with 424 atoms

variable elast equal $e
variable elast equal -1904.15652564798
run 1 pre no post no
Step v_emin v_elast PotEng 
    9939    5444.8513   -1904.1565   -1904.1565 
    9940    5444.8513   -1904.1565   -1903.3844 
Loop time of 0.00665402 on 1 procs for 1 steps with 424 atoms

run 1 pre no post no
Step v_emin v_elast PotEng 
    9940    5444.8513   -1904.1565   -1903.3844 
    9941    5444.8513   -1904.1565   -1903.2841 
Loop time of 0.00617099 on 1 procs for 1 steps with 424 atoms

run 1 pre no post no
Step v_emin v_elast PotEng 
    9941    5444.8513   -1904.1565   -1903.2841 
    9942    5444.8513   -1904.1565    -1903.711 
Loop time of 0.00612617 on 1 procs for 1 steps with 424 atoms

run 1 pre no post no
Step v_emin v_elast PotEng 
    9942    5444.8513   -1904.1565    -1903.711 
    9943    5444.8513   -1904.1565   -1903.9923 
Loop time of 0.00634694 on 1 procs for 1 steps with 424 atoms

run 1 pre no post no
Step v_emin v_elast PotEng 
    9943    5444.8513   -1904.1565   -1903.9923 
    9944    5444.8513   -1904.1565   -1902.8523 
Loop time of 0.00618792 on 1 procs for 1 steps with 424 atoms

run 1 pre no post no
Step v_emin v_elast PotEng 
    9944    5444.8513   -1904.1565   -1902.8523 
    9945    5444.8513   -1904.1565   -1904.0899 
Loop time of 0.006181 on 1 procs for 1 steps with 424 atoms

run 1 pre no post no
Step v_emin v_elast PotEng 
    9945    5444.8513   -1904.1565   -1904.0899 
    9946    5444.8513   -1904.1565    -1903.267 
Loop time of 0.00615811 on 1 procs for 1 steps with 424 atoms

run 1 pre no post no
Step v_emin v_elast PotEng 
    9946    5444.8513   -1904.1565    -1903.267 
    9947    5444.8513   -1904.1565   -1904.0347 
Loop time of 0.00611496 on 1 procs for 1 steps with 424 atoms

run 1 pre no post no
Step v_emin v_elast PotEng 
    9947    5444.8513   -1904.1565   -1904.0347 
    9948    5444.8513   -1904.1565   -1904.0995 
Loop time of 0.00625706 on 1 procs for 1 steps with 424 atoms

run 1 pre no post no
Step v_emin v_elast PotEng 
    9948    5444.8513   -1904.1565   -1904.0995 
    9949    5444.8513   -1904.1565   -1903.8958 
Loop time of 0.00609803 on 1 procs for 1 steps with 424 atoms

run 1 pre no post no
Step v_emin v_elast PotEng 
    9949    5444.8513   -1904.1565   -1903.8958 
    9950    5444.8513   -1904.1565   -1903.8653 
Loop time of 0.00670314 on 1 procs for 1 steps with 424 atoms

run 1 pre no post no
Step v_emin v_elast PotEng 
    9950    5444.8513   -1904.1565   -1903.8653 
    9951    5444.8513   -1904.1565    -1903.789 
Loop time of 0.00613785 on 1 procs for 1 steps with 424 atoms

run 1 pre no post no
Step v_emin v_elast PotEng 
    9951    5444.8513   -1904.1565    -1903.789 
    9952    5444.8513   -1904.1565   -1904.5706 
Loop time of 0.00611401 on 1 procs for 1 steps with 424 atoms

variable elast equal $e
variable elast equal -1904.57055431017
run 1 pre no post no
Step v_emin v_elast PotEng 
    9952    5444.8513   -1904.5706   -1904.5706 
    9953    5444.8513   -1904.5706   -1904.5596 
Loop time of 0.00614691 on 1 procs for 1 steps with 424 atoms

variable elast equal $e
variable elast equal -1904.55959038837
run 1 pre no post no
Step v_emin v_elast PotEng 
    9953    5444.8513   -1904.5596   -1904.5596 
    9954    5444.8513   -1904.5596   -1904.4554 
Loop time of 0.00618482 on 1 procs for 1 steps with 424 atoms

variable elast equal $e
variable elast equal -1904.45544777796
run 1 pre no post no
Step v_emin v_elast PotEng 
    9954    5444.8513   -1904.4554   -1904.4554 
    9955    5444.8513   -1904.4554   -1904.1741 
Loop time of 0.00611901 on 1 procs for 1 steps with 424 atoms

run 1 pre no post no
Step v_emin v_elast PotEng 
    9955    5444.8513   -1904.4554   -1904.1741 
    9956    5444.8513   -1904.4554   -1904.1602 
Loop time of 0.00616503 on 1 procs for 1 steps with 424 atoms

run 1 pre no post no
Step v_emin v_elast PotEng 
    9956    5444.8513   -1904.4554   -1904.1602 
    9957    5444.8513   -1904.4554   -1904.1975 
Loop time of 0.00612903 on 1 procs for 1 steps with 424 atoms

run 1 pre no post no
Step v_emin v_elast PotEng 
    9957    5444.8513   -1904.4554   -1904.1975 
    9958    5444.8513   -1904.4554   -1903.0571 
Loop time of 0.00624609 on 1 procs for 1 steps with 424 atoms

run 1 pre no post no
Step v_emin v_elast PotEng 
    9958    5444.8513   -1904.4554   -1903.0571 
    9959    5444.8513   -1904.4554   -1904.6095 
Loop time of 0.00611186 on 1 procs for 1 steps with 424 atoms

variable elast equal $e
variable elast equal -1904.60948647249
run 1 pre no post no
Step v_emin v_elast PotEng 
    9959    5444.8513   -1904.6095   -1904.6095 
    9960    5444.8513   -1904.6095   -1904.5789 
Loop time of 0.00676894 on 1 procs for 1 steps with 424 atoms

run 1 pre no post no
Step v_emin v_elast PotEng 
    9960    5444.8513   -1904.6095   -1904.5789 
    9961    5444.8513   -1904.6095    -1904.542 
Loop time of 0.0061729 on 1 procs for 1 steps with 424 atoms

run 1 pre no post no
Step v_emin v_elast PotEng 
    9961    5444.8513   -1904.6095    -1904.542 
    9962    5444.8513   -1904.6095   -1904.5377 
Loop time of 0.00612903 on 1 procs for 1 steps with 424 atoms

variable elast equal $e
variable elast equal -1904.53766687136
run 1 pre no post no
Step v_emin v_elast PotEng 
    9962    5444.8513   -1904.5377   -1904.5377 
    9963    5444.8513   -1904.5377    -1904.092 
Loop time of 0.00619912 on 1 procs for 1 steps with 424 atoms

run 1 pre no post no
Step v_emin v_elast PotEng 
    9963    5444.8513   -1904.5377    -1904.092 
    9964    5444.8513   -1904.5377   -1904.2881 
Loop time of 0.00612712 on 1 procs for 1 steps with 424 atoms

run 1 pre no post no
Step v_emin v_elast PotEng 
    9964    5444.8513   -1904.5377   -1904.2881 
    9965    5444.8513   -1904.5377   -1904.7424 
Loop time of 0.00617409 on 1 procs for 1 steps with 424 atoms

variable elast equal $e
variable elast equal -1904.74240211794
run 1 pre no post no
Step v_emin v_elast PotEng 
    9965    5444.8513   -1904.7424   -1904.7424 
    9966    5444.8513   -1904.7424   -1904.2878 
Loop time of 0.00618196 on 1 procs for 1 steps with 424 atoms

run 1 pre no post no
Step v_emin v_elast PotEng 
    9966    5444.8513   -1904.7424   -1904.2878 
    9967    5444.8513   -1904.7424   -1904.3578 
Loop time of 0.006109 on 1 procs for 1 steps with 424 atoms

run 1 pre no post no
Step v_emin v_elast PotEng 
    9967    5444.8513   -1904.7424   -1904.3578 
    9968    5444.8513   -1904.7424   -1904.0658 
Loop time of 0.00618505 on 1 procs for 1 steps with 424 atoms

run 1 pre no post no
Step v_emin v_elast PotEng 
    9968    5444.8513   -1904.7424   -1904.0658 
    9969    5444.8513   -1904.7424   -1904.5633 
Loop time of 0.00612617 on 1 procs for 1 steps with 424 atoms

run 1 pre no post no
Step v_emin v_elast PotEng 
    9969    5444.8513   -1904.7424   -1904.5633 
    9970    5444.8513   -1904.7424   -1904.0058 
Loop time of 0.00662899 on 1 procs for 1 steps with 424 atoms

run 1 pre no post no
Step v_emin v_elast PotEng 
    9970    5444.8513   -1904.7424   -1904.0058 
    9971    5444.8513   -1904.7424   -1903.5602 
Loop time of 0.006181 on 1 procs for 1 steps with 424 atoms

run 1 pre no post no
Step v_emin v_elast PotEng 
    9971    5444.8513   -1904.7424   -1903.5602 
    9972    5444.8513   -1904.7424   -1904.5373 
Loop time of 0.00613713 on 1 procs for 1 steps with 424 atoms

variable elast equal $e
variable elast equal -1904.53732546814
run 1 pre no post no
Step v_emin v_elast PotEng 
    9972    5444.8513   -1904.5373   -1904.5373 
    9973    5444.8513   -1904.5373   -1904.4949 
Loop time of 0.006181 on 1 procs for 1 steps with 424 atoms

run 1 pre no post no
Step v_emin v_elast PotEng 
    9973    5444.8513   -1904.5373   -1904.4949 
    9974    5444.8513   -1904.5373   -1904.5235 
Loop time of 0.00620389 on 1 procs for 1 steps with 424 atoms

variable elast equal $e
variable elast equal -1904.52353817152
run 1 pre no post no
Step v_emin v_elast PotEng 
    9974    5444.8513   -1904.5235   -1904.5235 
    9975    5444.8513   -1904.5235   -1903.6491 
Loop time of 0.00619888 on 1 procs for 1 steps with 424 atoms

run 1 pre no post no
Step v_emin v_elast PotEng 
    9975    5444.8513   -1904.5235   -1903.6491 
    9976    5444.8513   -1904.5235    -1904.769 
Loop time of 0.00619102 on 1 procs for 1 steps with 424 atoms

variable elast equal $e
variable elast equal -1904.76903566788
run 1 pre no post no
Step v_emin v_elast PotEng 
    9976    5444.8513    -1904.769    -1904.769 
    9977    5444.8513    -1904.769   -1904.5907 
Loop time of 0.00620008 on 1 procs for 1 steps with 424 atoms

run 1 pre no post no
Step v_emin v_elast PotEng 
    9977    5444.8513    -1904.769   -1904.5907 
    9978    5444.8513    -1904.769    -1903.919 
Loop time of 0.00622201 on 1 procs for 1 steps with 424 atoms

run 1 pre no post no
Step v_emin v_elast PotEng 
    9978    5444.8513    -1904.769    -1903.919 
    9979    5444.8513    -1904.769   -1905.0116 
Loop time of 0.00612998 on 1 procs for 1 steps with 424 atoms

variable elast equal $e
variable elast equal -1905.01157516289
run 1 pre no post no
Step v_emin v_elast PotEng 
    9979    5444.8513   -1905.0116   -1905.0116 
    9980    5444.8513   -1905.0116   -1904.5174 
Loop time of 0.00662208 on 1 procs for 1 steps with 424 atoms

run 1 pre no post no
Step v_emin v_elast PotEng 
    9980    5444.8513   -1905.0116   -1904.5174 
    9981    5444.8513   -1905.0116    -1904.637 
Loop time of 0.00614095 on 1 procs for 1 steps with 424 atoms

run 1 pre no post no
Step v_emin v_elast PotEng 
    9981    5444.8513   -1905.0116    -1904.637 
    9982    5444.8513   -1905.0116   -1904.1781 
Loop time of 0.00616002 on 1 procs for 1 steps with 424 atoms

run 1 pre no post no
Step v_emin v_elast PotEng 
    9982    5444.8513   -1905.0116   -1904.1781 
    9983    5444.8513   -1905.0116   -1904.8101 
Loop time of 0.00620794 on 1 procs for 1 steps with 424 atoms

run 1 pre no post no
Step v_emin v_elast PotEng 
    9983    5444.8513   -1905.0116   -1904.8101 
    9984    5444.8513   -1905.0116   -1905.1529 
Loop time of 0.00621796 on 1 procs for 1 steps with 424 atoms

variable elast equal $e
variable elast equal -1905.15290470089
run 1 pre no post no
Step v_emin v_elast PotEng 
    9984    5444.8513   -1905.1529   -1905.1529 
    9985    5444.8513   -1905.1529   -1904.7993 
Loop time of 0.00617719 on 1 procs for 1 steps with 424 atoms

run 1 pre no post no
Step v_emin v_elast PotEng 
    9985    5444.8513   -1905.1529   -1904.7993 
    9986    5444.8513   -1905.1529   -1905.0754 
Loop time of 0.00618792 on 1 procs for 1 steps with 424 atoms

variable elast equal $e
variable elast equal -1905.07544147938
run 1 pre no post no
Step v_emin v_elast PotEng 
    9986    5444.8513   -1905.0754   -1905.0754 
    9987    5444.8513   -1905.0754   -1904.8787 
Loop time of 0.00615096 on 1 procs for 1 steps with 424 atoms

run 1 pre no post no
Step v_emin v_elast PotEng 
    9987    5444.8513   -1905.0754   -1904.8787 
    9988    5444.8513   -1905.0754   -1903.7871 
Loop time of 0.00617909 on 1 procs for 1 steps with 424 atoms

run 1 pre no post no
Step v_emin v_elast PotEng 
    9988    5444.8513   -1905.0754   -1903.7871 
    9989    5444.8513   -1905.0754   -1905.1999 
Loop time of 0.00619197 on 1 procs for 1 steps with 424 atoms

variable elast equal $e
variable elast equal -1905.19994706721
run 1 pre no post no
Step v_emin v_elast PotEng 
    9989    5444.8513   -1905.1999   -1905.1999 
    9990    5444.8513   -1905.1999   -1904.5334 
Loop time of 0.00670099 on 1 procs for 1 steps with 424 atoms

run 1 pre no post no
Step v_emin v_elast PotEng 
    9990    5444.8513   -1905.1999   -1904.5334 
    9991    5444.8513   -1905.1999   -1905.2192 
Loop time of 0.00618911 on 1 procs for 1 steps with 424 atoms

variable elast equal $e
variable elast equal -1905.21918484686
run 1 pre no post no
Step v_emin v_elast PotEng 
    9991    5444.8513   -1905.2192   -1905.2192 
    9992    5444.8513   -1905.2192    -1905.048 
Loop time of 0.00618505 on 1 procs for 1 steps with 424 atoms

run 1 pre no post no
Step v_emin v_elast PotEng 
    9992    5444.8513   -1905.2192    -1905.048 
    9993    5444.8513   -1905.2192   -1905.1108 
Loop time of 0.00620818 on 1 procs for 1 steps with 424 atoms

run 1 pre no post no
Step v_emin v_elast PotEng 
    9993    5444.8513   -1905.2192   -1905.1108 
    9994    5444.8513   -1905.2192   -1906.1945 
Loop time of 0.00619102 on 1 procs for 1 steps with 424 atoms

variable elast equal $e
variable elast equal -1906.19452390013
run 1 pre no post no
Step v_emin v_elast PotEng 
    9994    5444.8513   -1906.1945   -1906.1945 
    9995    5444.8513   -1906.1945    -1905.912 
Loop time of 0.00613379 on 1 procs for 1 steps with 424 atoms

run 1 pre no post no
Step v_emin v_elast PotEng 
    9995    5444.8513   -1906.1945    -1905.912 
    9996    5444.8513   -1906.1945   -1906.1654 
Loop time of 0.00620484 on 1 procs for 1 steps with 424 atoms

variable elast equal $e
variable elast equal -1906.1653743206
run 1 pre no post no
Step v_emin v_elast PotEng 
    9996    5444.8513   -1906.1654   -1906.1654 
    9997    5444.8513   -1906.1654    -1906.084 
Loop time of 0.0061729 on 1 procs for 1 steps with 424 atoms

run 1 pre no post no
Step v_emin v_elast PotEng 
    9997    5444.8513   -1906.1654    -1906.084 
    9998    5444.8513   -1906.1654   -1905.9616 
Loop time of 0.00615096 on 1 procs for 1 steps with 424 atoms

run 1 pre no post no
Step v_emin v_elast PotEng 
    9998    5444.8513   -1906.1654   -1905.9616 
    9999    5444.8513   -1906.1654   -1906.0503 
Loop time of 0.00618505 on 1 procs for 1 steps with 424 atoms

variable elast equal $e
variable elast equal -1906.05026263374
run 1 pre no post no
Step v_emin v_elast PotEng 
    9999    5444.8513   -1906.0503   -1906.0503 
   10000    5444.8513   -1906.0503   -1906.1181 
Loop time of 0.00667405 on 1 procs for 1 steps with 424 atoms

variable elast equal $e
variable elast equal -1906.11813519299
variable nbuild equal nbuild
run 0
WARNING: No fixes defined, atoms won't move (../verlet.cpp:52)
Per MPI rank memory allocation (min/avg/max) = 4.238 | 4.238 | 4.238 Mbytes
Step v_emin v_elast PotEng 
   10000    5444.8513   -1906.1181   -1906.1181 
Loop time of 9.53674e-07 on 1 procs for 0 steps with 424 atoms

0.0% CPU use with 1 MPI tasks x no OpenMP threads

MPI task timing breakdown:
Section |  min time  |  avg time  |  max time  |%varavg| %total
---------------------------------------------------------------
Pair    | 0          | 0          | 0          |   0.0 |  0.00
Neigh   | 0          | 0          | 0          |   0.0 |  0.00
Comm    | 0          | 0          | 0          |   0.0 |  0.00
Output  | 0          | 0          | 0          |   0.0 |  0.00
Modify  | 0          | 0          | 0          |   0.0 |  0.00
Other   |            | 9.537e-07  |            |       |100.00

Nlocal:    424 ave 424 max 424 min
Histogram: 1 0 0 0 0 0 0 0 0 0
Nghost:    2088 ave 2088 max 2088 min
Histogram: 1 0 0 0 0 0 0 0 0 0
Neighs:    0 ave 0 max 0 min
Histogram: 1 0 0 0 0 0 0 0 0 0
FullNghs:  63732 ave 63732 max 63732 min
Histogram: 1 0 0 0 0 0 0 0 0 0

Total # of neighbors = 63732
Ave neighs/atom = 150.311
Neighbor list builds = 0
Dangerous builds = 0
Total wall time: 0:01:03
