588
Atoms. Timestep: 0
3 1.54135 2.6697 -13.2143
4 3.08271 8.88179e-16 -15.1021
3 3.08271 8.88179e-16 -13.2143
4 0 0 -15.1021
4 0 1.7798 -12.5851
3 0 0 -13.2143
4 3.08271 1.7798 -12.5851
3 7.70676 2.6697 -13.2143
3 4.62405 2.6697 -13.2143
4 6.1654 0 -15.1021
4 6.1654 1.7798 -12.5851
3 6.1654 0 -13.2143
3 10.7895 2.6697 -13.2143
3 9.24811 0 -13.2143
4 12.3308 0 -15.1021
4 12.3308 1.7798 -12.5851
3 12.3308 0 -13.2143
4 9.24811 1.7798 -12.5851
3 16.9549 2.6697 -13.2143
4 13.8722 2.6697 -15.1021
3 13.8722 2.6697 -13.2143
4 15.4135 8.88179e-16 -15.1021
3 15.4135 0 -13.2143
4 15.4135 1.7798 -12.5851
3 1.54135 8.0091 -13.2143
3 0 5.3394 -13.2143
4 1.54135 4.44949 -12.5851
4 3.08271 7.11919 -12.5851
3 3.08271 5.3394 -13.2143
4 0 7.11919 -12.5851
3 7.70676 8.0091 -13.2143
3 4.62405 8.0091 -13.2143
3 6.1654 5.3394 -13.2143
4 7.70676 4.44949 -12.5851
4 4.62405 4.44949 -12.5851
4 6.1654 7.11919 -12.5851
3 10.7895 8.0091 -13.2143
3 12.3308 5.3394 -13.2143
4 10.7895 4.44949 -12.5851
4 9.24811 7.11919 -12.5851
3 9.24811 5.3394 -13.2143
4 12.3308 7.11919 -12.5851
3 16.9549 8.0091 -13.2143
3 13.8722 8.0091 -13.2143
4 16.9549 4.44949 -12.5851
4 13.8722 4.44949 -12.5851
4 15.4135 7.11919 -12.5851
3 15.4135 5.3394 -13.2143
4 3.08271 10.6788 -15.1021
3 3.08271 10.6788 -13.2143
4 0 10.6788 -15.1021
4 1.54135 9.78889 -12.5851
4 0 12.4586 -12.5851
3 0 10.6788 -13.2143
4 3.08271 12.4586 -12.5851
4 6.1654 10.6788 -15.1021
4 7.70676 9.78889 -12.5851
4 4.62405 9.78889 -12.5851
4 6.1654 12.4586 -12.5851
3 6.1654 10.6788 -13.2143
4 9.24811 10.6788 -15.1021
3 9.24811 10.6788 -13.2143
4 10.7895 9.78889 -12.5851
4 12.3308 12.4586 -12.5851
3 12.3308 10.6788 -13.2143
4 9.24811 12.4586 -12.5851
3 15.4135 10.6788 -13.2143
4 16.9549 9.78889 -12.5851
4 13.8722 9.78889 -12.5851
4 15.4135 12.4586 -12.5851
4 1.54135 13.3485 -15.1021
3 1.54135 13.3485 -13.2143
3 0 16.0182 -13.2143
4 1.54135 15.1283 -12.5851
3 3.08271 16.0182 -13.2143
4 7.70676 13.3485 -15.1021
3 7.70676 13.3485 -13.2143
3 4.62405 13.3485 -13.2143
3 6.1654 16.0182 -13.2143
4 7.70676 15.1283 -12.5851
4 4.62405 15.1283 -12.5851
3 10.7895 13.3485 -13.2143
3 12.3308 16.0182 -13.2143
4 10.7895 15.1283 -12.5851
3 9.24811 16.0182 -13.2143
3 16.9549 13.3485 -13.2143
3 13.8722 13.3485 -13.2143
4 16.9549 15.1283 -12.5851
4 13.8722 15.1283 -12.5851
3 15.4135 16.0182 -13.2143
3 1.54135 18.6879 -13.2143
4 1.54135 20.4677 -12.5851
4 3.08271 17.798 -12.5851
4 0 17.798 -12.5851
3 7.70676 18.6879 -13.2143
3 4.62405 18.6879 -13.2143
4 7.70676 20.4677 -12.5851
4 4.62405 20.4677 -12.5851
4 6.1654 17.798 -12.5851
3 10.7895 18.6879 -13.2143
4 10.7895 20.4677 -12.5851
4 9.24811 17.798 -12.5851
4 12.3308 17.798 -12.5851
3 16.9549 18.6879 -13.2143
3 13.8722 18.6879 -13.2143
4 16.9549 20.4677 -12.5851
4 13.8722 20.4677 -12.5851
4 15.4135 17.798 -12.5851
4 0 0 -7.55105
4 3.08271 0 -7.55105
3 0 3.55961 -8.18029
4 1.54135 2.6697 -7.55105
4 0 3.55961 -10.0681
3 0 1.7798 -10.6973
4 1.54135 0.8899 -10.0681
4 3.08271 3.55961 -10.0681
3 3.08271 1.7798 -10.6973
3 1.54135 0.8899 -8.18029
3 3.08271 3.55961 -8.18029
4 6.1654 0 -7.55105
3 6.1654 3.55961 -8.18029
4 4.62405 2.6697 -7.55105
4 7.70676 2.6697 -7.55105
3 6.1654 1.7798 -10.6973
4 7.70676 0.8899 -10.0681
3 7.70676 0.8899 -8.18029
4 4.62405 0.8899 -10.0681
3 4.62405 0.8899 -8.18029
4 6.1654 3.55961 -10.0681
4 12.3308 4.44088e-16 -7.55105
4 9.24811 4.44088e-16 -7.55105
3 12.3308 1.7798 -10.6973
4 10.7895 0.8899 -10.0681
4 9.24811 3.55961 -10.0681
3 9.24811 1.7798 -10.6973
3 10.7895 0.8899 -8.18029
3 9.24811 3.55961 -8.18029
4 12.3308 3.55961 -10.0681
4 10.7895 2.6697 -7.55105
3 12.3308 3.55961 -8.18029
4 15.4135 0 -7.55105
4 16.9549 0.8899 -10.0681
4 13.8722 0.8899 -10.0681
4 15.4135 3.55961 -10.0681
3 15.4135 1.7798 -10.6973
3 16.9549 0.8899 -8.18029
3 13.8722 0.8899 -8.18029
3 15.4135 3.55961 -8.18029
4 16.9549 2.6697 -7.55105
4 13.8722 2.6697 -7.55105
4 3.08271 5.3394 -7.55105
4 0 5.3394 -7.55105
3 1.54135 4.44949 -10.6973
3 3.08271 7.11919 -10.6973
4 1.54135 6.2293 -10.0681
3 0 7.11919 -10.6973
3 1.54135 6.2293 -8.18029
4 1.54135 8.0091 -7.55105
4 6.1654 5.3394 -7.55105
3 7.70676 4.44949 -10.6973
3 4.62405 4.44949 -10.6973
4 7.70676 6.2293 -10.0681
4 4.62405 6.2293 -10.0681
3 6.1654 7.11919 -10.6973
3 7.70676 6.2293 -8.18029
3 4.62405 6.2293 -8.18029
4 7.70676 8.0091 -7.55105
4 4.62405 8.0091 -7.55105
4 9.24811 5.3394 -7.55105
3 10.7895 4.44949 -10.6973
3 9.24811 7.11919 -10.6973
4 10.7895 6.2293 -10.0681
3 12.3308 7.11919 -10.6973
3 10.7895 6.2293 -8.18029
4 10.7895 8.0091 -7.55105
4 12.3308 5.3394 -7.55105
3 16.9549 4.44949 -10.6973
3 13.8722 4.44949 -10.6973
3 15.4135 7.11919 -10.6973
4 16.9549 6.2293 -10.0681
3 16.9549 6.2293 -8.18029
4 13.8722 6.2293 -10.0681
3 13.8722 6.2293 -8.18029
4 16.9549 8.0091 -7.55105
4 13.8722 8.0091 -7.55105
4 15.4135 5.3394 -7.55105
3 1.54135 9.78889 -10.6973
3 0 12.4586 -10.6973
4 1.54135 11.5687 -10.0681
3 3.08271 12.4586 -10.6973
3 1.54135 11.5687 -8.18029
4 0 8.899 -10.0681
3 0 8.899 -8.18029
4 3.08271 8.899 -10.0681
4 3.08271 10.6788 -7.55105
3 3.08271 8.899 -8.18029
4 0 10.6788 -7.55105
3 7.70676 9.78889 -10.6973
3 4.62405 9.78889 -10.6973
3 6.1654 12.4586 -10.6973
4 7.70676 11.5687 -10.0681
3 7.70676 11.5687 -8.18029
4 4.62405 11.5687 -10.0681
3 4.62405 11.5687 -8.18029
4 6.1654 8.899 -10.0681
3 6.1654 8.899 -8.18029
4 6.1654 10.6788 -7.55105
3 10.7895 9.78889 -10.6973
3 12.3308 12.4586 -10.6973
4 10.7895 11.5687 -10.0681
3 9.24811 12.4586 -10.6973
3 10.7895 11.5687 -8.18029
4 12.3308 8.899 -10.0681
3 12.3308 8.899 -8.18029
4 9.24811 8.899 -10.0681
4 9.24811 10.6788 -7.55105
3 9.24811 8.899 -8.18029
4 12.3308 10.6788 -7.55105
3 16.9549 9.78889 -10.6973
3 13.8722 9.78889 -10.6973
4 16.9549 11.5687 -10.0681
4 13.8722 11.5687 -10.0681
3 15.4135 12.4586 -10.6973
3 16.9549 11.5687 -8.18029
3 13.8722 11.5687 -8.18029
4 15.4135 8.899 -10.0681
4 15.4135 10.6788 -7.55105
3 15.4135 8.899 -8.18029
3 1.54135 15.1283 -10.6973
4 1.54135 16.9081 -10.0681
3 1.54135 16.9081 -8.18029
4 3.08271 14.2384 -10.0681
3 3.08271 14.2384 -8.18029
4 0 14.2384 -10.0681
4 1.54135 13.3485 -7.55105
4 0 16.0182 -7.55105
3 0 14.2384 -8.18029
4 3.08271 16.0182 -7.55105
2 6.13753 15.9664 -7.60717
3 7.70676 15.1283 -10.6973
3 4.62405 15.1283 -10.6973
4 7.70676 16.9081 -10.0681
4 4.62405 16.9081 -10.0681
3 7.70676 16.9081 -8.18029
3 4.62405 16.9081 -8.18029
4 6.1654 14.2384 -10.0681
4 7.70676 13.3485 -7.55105
4 4.62405 13.3485 -7.55105
3 6.1654 14.2384 -8.18029
3 10.7895 15.1283 -10.6973
4 10.7895 16.9081 -10.0681
3 10.7895 16.9081 -8.18029
4 9.24811 14.2384 -10.0681
3 9.24811 14.2384 -8.18029
4 12.3308 14.2384 -10.0681
4 10.7895 13.3485 -7.55105
4 12.3308 16.0182 -7.55105
3 12.3308 14.2384 -8.18029
4 9.24811 16.0182 -7.55105
2 15.2923 16.0429 -7.52749
3 16.9549 15.1283 -10.6973
3 13.8722 15.1283 -10.6973
4 16.9549 16.9081 -10.0681
3 16.9549 16.9081 -8.18029
4 13.8722 16.9081 -10.0681
3 13.8722 16.9081 -8.18029
4 15.4135 14.2384 -10.0681
3 15.4135 14.2384 -8.18029
4 16.9549 13.3485 -7.55105
4 13.8722 13.3485 -7.55105
3 1.54135 20.4677 -10.6973
3 3.08271 17.798 -10.6973
4 0 19.5778 -10.0681
3 0 17.798 -10.6973
3 0 19.5778 -8.18029
4 3.08271 19.5778 -10.0681
4 1.54135 18.6879 -7.55105
3 3.08271 19.5778 -8.18029
3 7.70676 20.4677 -10.6973
3 4.62405 20.4677 -10.6973
4 6.1654 19.5778 -10.0681
3 6.1654 17.798 -10.6973
3 6.1654 19.5778 -8.18029
4 7.70676 18.6879 -7.55105
4 4.62405 18.6879 -7.55105
3 10.7895 20.4677 -10.6973
3 9.24811 17.798 -10.6973
4 12.3308 19.5778 -10.0681
3 12.3308 17.798 -10.6973
3 12.3308 19.5778 -8.18029
4 9.24811 19.5778 -10.0681
4 10.7895 18.6879 -7.55105
3 9.24811 19.5778 -8.18029
2 16.981 18.7067 -7.58128
3 16.9549 20.4677 -10.6973
3 13.8722 20.4677 -10.6973
3 15.4135 17.798 -10.6973
4 15.4135 19.5778 -10.0681
4 13.8722 18.6879 -7.55105
3 15.4135 19.5778 -8.18029
1 1.47283 2.76758 -5.69485
1 3.07979 21.314 -5.63695
2 18.4686 1.80369 -5.10768
1 0.0616233 0.0308647 -5.64976
1 18.3677 1.82553 -3.15084
2 2.97534 1.86897 -4.98007
2 1.45138 0.935695 -2.36701
2 2.92803 3.66308 -2.54839
1 2.91741 1.85072 -3.17754
2 18.4458 3.49701 -2.47786
1 7.62654 2.73885 -5.62212
1 4.48711 2.70366 -5.62737
2 6.11246 1.72855 -5.02897
1 6.25322 0.0275684 -5.69071
1 6.11724 1.82284 -3.11529
2 7.71264 0.987314 -2.57439
2 4.51393 1.02384 -2.55965
2 6.12959 3.73371 -2.50245
1 10.7858 2.61511 -5.58941
1 9.23549 21.3425 -5.67591
2 12.4147 1.81881 -5.17199
1 12.3273 21.311 -5.72442
1 12.4263 1.74507 -3.16878
2 9.16506 1.7276 -5.02948
2 10.8339 0.901555 -2.64066
2 9.17231 3.53417 -2.49819
1 9.21463 1.77393 -3.12079
2 12.2919 3.47808 -2.38217
1 16.9604 2.58621 -5.69307
1 13.9647 2.69484 -5.66005
1 15.4156 21.2594 -5.71648
2 15.5043 1.66215 -4.92356
2 16.9173 0.746102 -2.30274
2 13.8799 0.904898 -2.53446
2 15.3209 3.48447 -2.45581
1 15.3991 1.74762 -2.99381
1 1.49704 8.03919 -5.63643
1 18.4588 5.44345 -5.60992
2 1.5249 4.46589 -4.95001
2 3.03767 7.20832 -4.96714
1 3.04845 5.37517 -5.61396
1 1.43857 4.46991 -3.17011
1 3.07707 7.12075 -3.06636
2 0.0021483 7.23642 -4.9585
2 1.53192 6.32044 -2.42132
1 18.4862 7.23482 -3.08037
1 7.70737 8.0589 -5.58732
1 4.73919 8.03368 -5.64634
1 6.19026 5.37635 -5.65447
2 7.65782 4.43063 -4.95307
1 7.62523 4.52377 -3.09324
2 4.58057 4.51724 -4.9054
1 4.56759 4.43625 -3.03957
2 6.18475 7.18446 -4.94373
2 7.73815 6.2138 -2.59789
2 4.68115 6.30216 -2.41733
1 6.17535 7.22053 -3.07388
1 10.7559 7.94229 -5.68005
1 12.2777 5.27137 -5.65909
2 10.7226 4.37529 -4.95219
2 9.21604 7.1156 -5.07844
1 9.22871 5.39228 -5.64954
1 10.7639 4.45818 -3.08756
1 9.21703 7.11308 -3.19865
2 12.3121 7.12872 -5.08744
2 10.6855 6.32853 -2.5473
1 12.224 7.12889 -3.13459
1 16.9278 8.0585 -5.66042
1 13.8587 8.09634 -5.69576
2 16.9329 4.39956 -4.91673
2 13.9291 4.48362 -5.04011
2 15.4599 7.18606 -5.10744
1 15.4641 5.37951 -5.75052
1 16.9202 4.4502 -3.12607
1 13.7939 4.39264 -3.19488
1 15.4134 7.12171 -3.21007
2 17.0085 6.23956 -2.4807
2 13.8964 6.23975 -2.54824
1 3.09362 10.6758 -5.68802
2 1.68987 9.78013 -5.04335
2 0.0657237 12.4852 -5.10575
1 0.0791116 10.6663 -5.6625
1 1.59854 9.82605 -3.07835
1 0.00153827 12.4742 -3.10212
2 3.09943 12.4171 -5.04501
2 1.44597 11.5661 -2.43068
1 3.13374 12.4863 -3.08856
2 0.0319395 8.96551 -2.36438
2 3.01496 8.88354 -2.50317
2 7.69086 9.81984 -4.99946
2 4.65592 9.76384 -4.97862
2 6.08117 12.3755 -4.94609
1 6.20752 10.6899 -5.5959
1 7.7771 9.77379 -3.04999
1 4.60759 9.74039 -3.06249
1 6.16153 12.4636 -3.13746
2 7.76682 11.6028 -2.47584
2 4.62215 11.454 -2.56352
2 6.27279 9.02239 -2.4444
1 9.31492 10.6477 -5.65244
2 10.7831 9.72095 -4.96783
2 12.4382 12.5649 -5.05256
1 12.3191 10.6883 -5.69074
1 10.8137 9.79181 -3.13589
1 12.4098 12.5041 -3.18766
2 9.32108 12.4484 -5.14622
2 10.8572 11.6827 -2.4592
1 9.30726 12.5094 -3.1866
2 12.4504 8.98215 -2.5901
2 9.24274 9.01585 -2.40317
1 15.4714 10.7153 -5.73662
2 16.9152 9.85599 -5.06965
1 16.9413 9.80104 -3.15444
2 13.8597 9.86044 -5.21717
1 13.9358 9.77071 -3.19748
2 15.3773 12.417 -5.08929
2 17.0939 11.5952 -2.5866
2 13.8877 11.5019 -2.56198
1 15.447 12.4322 -3.16866
2 15.3923 8.89862 -2.48046
1 1.57847 13.3726 -5.67691
1 18.4736 15.9257 -5.61257
2 1.58393 15.1597 -5.02395
1 3.04616 16.0416 -5.63616
1 1.68901 15.137 -3.11683
2 1.46924 16.9816 -2.38994
2 3.16174 14.3163 -2.51746
2 0.154444 14.234 -2.54195
1 7.59976 13.3582 -5.66301
1 4.60066 13.4781 -5.61342
1 6.20517 16.0886 -5.7478
2 7.61889 15.2373 -5.15561
1 7.67206 15.1433 -3.13121
2 4.63327 15.3646 -4.9518
1 4.67943 15.325 -3.06065
2 7.66409 16.8781 -2.6287
2 4.67303 17.0104 -2.37224
2 6.19468 14.2655 -2.38085
1 10.8601 13.3294 -5.64586
1 12.3494 15.9704 -5.63952
2 10.7979 14.9924 -5.07382
1 9.29039 15.9585 -5.6754
1 10.7984 15.2311 -3.22206
2 10.8233 17.0227 -2.47919
2 9.24064 14.3089 -2.44986
2 12.3663 14.2705 -2.56941
1 17.0063 13.2888 -5.60647
1 13.8833 13.3584 -5.67316
2 16.9862 15.0079 -4.92428
2 13.8587 15.0444 -5.02021
1 15.477 16.0411 -5.57391
1 16.9487 15.0785 -3.07035
1 13.9723 15.1128 -3.15924
2 17.0305 16.8542 -2.32113
2 13.8295 16.8223 -2.36541
2 15.5261 14.1953 -2.45258
1 1.60122 18.6698 -5.63178
2 1.57061 20.4692 -4.94808
1 1.47271 20.5327 -2.98439
2 3.15599 17.823 -4.91821
1 3.1487 17.8741 -2.99765
2 0.0664606 17.7653 -4.98001
2 0.0362476 19.543 -2.39359
1 0.011556 17.7189 -3.02522
2 3.08461 19.7007 -2.379
1 7.70406 18.7403 -5.64483
1 4.70442 18.6812 -5.63529
2 7.76959 20.4434 -5.06736
2 4.66328 20.525 -4.94681
1 7.68745 20.5018 -3.24713
1 4.63728 20.551 -3.12786
2 6.27205 17.8706 -4.94708
2 6.28189 19.5974 -2.51293
1 6.19864 17.88 -3.04488
1 10.791 18.7561 -5.74795
2 10.739 20.3884 -5.12743
1 10.8309 20.4605 -3.20409
2 9.27426 17.7783 -5.06361
1 9.21217 17.744 -3.26205
2 12.2362 17.6901 -5.04455
2 12.3563 19.6873 -2.46916
1 12.3791 17.8583 -3.0441
2 9.14902 19.5849 -2.58394
1 17.0887 18.6812 -5.68718
1 13.8287 18.6139 -5.61221
2 16.986 20.4784 -5.01498
1 16.9814 20.4528 -3.07089
2 13.7922 20.4236 -4.96714
1 13.8727 20.439 -3.01456
2 15.5667 17.8431 -4.95723
1 15.4809 17.7264 -3.06129
2 15.5267 19.4802 -2.45032
1 1.54434 0.830306 -0.381358
1 2.89804 3.62496 -0.546636
2 1.46025 2.69535 -0.0360034
1 18.3954 3.49079 -0.673493
2 3.11541 0.0245034 -0.179655
2 18.4853 21.2402 -0.10502
1 7.67023 1.03327 -0.572309
1 4.57228 0.930003 -0.654283
2 7.70981 2.72134 -0.394316
2 4.49471 2.67418 -0.172738
1 6.03519 3.61768 -0.492691
2 6.10845 0.0815623 -0.263622
1 10.7892 0.956515 -0.546122
1 9.18818 3.62789 -0.656156
2 10.6887 2.83885 -0.185514
1 12.253 3.56383 -0.566872
2 9.21372 0.0838273 -0.315634
2 12.3434 21.34 -0.121542
1 16.9993 0.738657 -0.544733
1 13.8472 0.867609 -0.511387
1 15.4025 3.58722 -0.542558
2 16.988 2.53886 -0.338649
2 13.8654 2.58168 -0.191978
2 15.3446 21.3022 0.11535
1 1.50017 6.27614 -0.572521
2 1.52903 8.04051 -0.260813
2 0.0377354 5.39783 -0.090975
2 3.03621 5.48029 -0.118612
1 7.71248 6.34041 -0.575571
1 4.6166 6.35452 -0.461278
2 7.60072 8.03396 -0.416244
2 4.58129 8.13404 -0.121814
2 6.1462 5.47141 -0.0740305
1 10.9296 6.2145 -0.49852
2 10.8041 8.05497 -0.201855
2 12.4245 5.26059 -0.0728827
2 9.27533 5.37227 -0.317204
1 16.927 6.31858 -0.403921
1 13.9003 6.16023 -0.605232
2 16.8891 8.07432 -0.146672
2 13.9173 7.93219 -0.360215
2 15.3955 5.3482 -0.0289658
1 1.53742 11.6018 -0.426513
1 0.0268772 8.92606 -0.366316
2 2.99718 10.6895 -0.0477226
1 2.98891 8.90693 -0.573759
2 0.0152655 10.7243 -0.510572
1 7.74614 11.6172 -0.463363
1 4.58665 11.6534 -0.61828
1 6.0736 9.015 -0.556542
2 6.20213 10.743 -0.235925
1 10.8392 11.5414 -0.441706
1 12.2547 8.86915 -0.676936
2 9.25691 10.6621 -0.200949
1 9.24239 8.92423 -0.498007
2 12.3676 10.5345 -0.450767
1 16.9275 11.4819 -0.629606
1 13.9002 11.4809 -0.591247
2 15.4521 10.6282 -0.253474
1 15.4392 8.86949 -0.688384
1 1.61411 16.9802 -0.537423
1 3.10631 14.2888 -0.58433
2 1.53802 13.3985 -0.128851
2 0.104484 15.9608 -0.163556
1 0.0706315 14.223 -0.607165
2 3.15631 16.0807 -0.337955
1 7.72504 16.8997 -0.563157
1 4.6789 16.9563 -0.456687
2 7.71973 13.3342 -0.0986167
2 4.5335 13.3766 -0.242872
2 6.25991 16.0275 -0.174248
1 6.22829 14.1827 -0.529419
1 10.8241 17.0029 -0.635406
1 9.31582 14.1882 -0.538933
2 10.9245 13.3653 -0.38018
2 12.3241 16.0791 -0.205962
1 12.4563 14.3047 -0.71294
2 9.28678 16.0659 -0.488825
1 17.035 16.8352 -0.287423
1 13.9101 16.95 -0.500151
1 15.4957 14.1558 -0.405522
2 17.0413 13.1723 -0.262897
2 13.899 13.2823 -0.309261
2 15.4948 16.0223 -0.106711
1 0.069364 19.4811 -0.195844
2 1.61 18.6557 -0.082095
1 3.14473 19.6524 -0.41416
1 6.22444 19.6488 -0.517579
2 7.7031 18.8149 -0.294038
2 4.61586 18.7671 -0.0221095
1 12.2844 19.6926 -0.502507
2 10.7285 18.8728 -0.225716
1 9.22282 19.6412 -0.745198
2 16.9936 18.6792 -0.211278
2 13.8035 18.6558 -0.392896
1 15.3797 19.5558 -0.483086
514
Atoms. Timestep: 100
3 1.54135 2.6697 -13.2143
4 3.08271 8.88179e-16 -15.1021
3 3.08271 8.88179e-16 -13.2143
4 0 0 -15.1021
4 0 1.7798 -12.5851
3 0 0 -13.2143
4 3.08271 1.7798 -12.5851
3 7.70676 2.6697 -13.2143
3 4.62405 2.6697 -13.2143
4 6.1654 0 -15.1021
4 6.1654 1.7798 -12.5851
3 6.1654 0 -13.2143
3 10.7895 2.6697 -13.2143
3 9.24811 0 -13.2143
4 12.3308 0 -15.1021
4 12.3308 1.7798 -12.5851
3 12.3308 0 -13.2143
4 9.24811 1.7798 -12.5851
3 16.9549 2.6697 -13.2143
4 13.8722 2.6697 -15.1021
3 13.8722 2.6697 -13.2143
4 15.4135 8.88179e-16 -15.1021
3 15.4135 0 -13.2143
4 15.4135 1.7798 -12.5851
3 1.54135 8.0091 -13.2143
3 0 5.3394 -13.2143
4 1.54135 4.44949 -12.5851
4 3.08271 7.11919 -12.5851
3 3.08271 5.3394 -13.2143
4 0 7.11919 -12.5851
3 7.70676 8.0091 -13.2143
3 4.62405 8.0091 -13.2143
3 6.1654 5.3394 -13.2143
4 7.70676 4.44949 -12.5851
4 4.62405 4.44949 -12.5851
4 6.1654 7.11919 -12.5851
3 10.7895 8.0091 -13.2143
3 12.3308 5.3394 -13.2143
4 10.7895 4.44949 -12.5851
4 9.24811 7.11919 -12.5851
3 9.24811 5.3394 -13.2143
4 12.3308 7.11919 -12.5851
3 16.9549 8.0091 -13.2143
3 13.8722 8.0091 -13.2143
4 16.9549 4.44949 -12.5851
4 13.8722 4.44949 -12.5851
4 15.4135 7.11919 -12.5851
3 15.4135 5.3394 -13.2143
4 3.08271 10.6788 -15.1021
3 3.08271 10.6788 -13.2143
4 0 10.6788 -15.1021
4 1.54135 9.78889 -12.5851
4 0 12.4586 -12.5851
3 0 10.6788 -13.2143
4 3.08271 12.4586 -12.5851
4 6.1654 10.6788 -15.1021
4 7.70676 9.78889 -12.5851
4 4.62405 9.78889 -12.5851
4 6.1654 12.4586 -12.5851
3 6.1654 10.6788 -13.2143
4 9.24811 10.6788 -15.1021
3 9.24811 10.6788 -13.2143
4 10.7895 9.78889 -12.5851
4 12.3308 12.4586 -12.5851
3 12.3308 10.6788 -13.2143
4 9.24811 12.4586 -12.5851
3 15.4135 10.6788 -13.2143
4 16.9549 9.78889 -12.5851
4 13.8722 9.78889 -12.5851
4 15.4135 12.4586 -12.5851
4 1.54135 13.3485 -15.1021
3 1.54135 13.3485 -13.2143
3 0 16.0182 -13.2143
4 1.54135 15.1283 -12.5851
3 3.08271 16.0182 -13.2143
4 7.70676 13.3485 -15.1021
3 7.70676 13.3485 -13.2143
3 4.62405 13.3485 -13.2143
3 6.1654 16.0182 -13.2143
4 7.70676 15.1283 -12.5851
4 4.62405 15.1283 -12.5851
3 10.7895 13.3485 -13.2143
3 12.3308 16.0182 -13.2143
4 10.7895 15.1283 -12.5851
3 9.24811 16.0182 -13.2143
3 16.9549 13.3485 -13.2143
3 13.8722 13.3485 -13.2143
4 16.9549 15.1283 -12.5851
4 13.8722 15.1283 -12.5851
3 15.4135 16.0182 -13.2143
3 1.54135 18.6879 -13.2143
4 1.54135 20.4677 -12.5851
4 3.08271 17.798 -12.5851
4 0 17.798 -12.5851
3 7.70676 18.6879 -13.2143
3 4.62405 18.6879 -13.2143
4 7.70676 20.4677 -12.5851
4 4.62405 20.4677 -12.5851
4 6.1654 17.798 -12.5851
3 10.7895 18.6879 -13.2143
4 10.7895 20.4677 -12.5851
4 9.24811 17.798 -12.5851
4 12.3308 17.798 -12.5851
3 16.9549 18.6879 -13.2143
3 13.8722 18.6879 -13.2143
4 16.9549 20.4677 -12.5851
4 13.8722 20.4677 -12.5851
4 15.4135 17.798 -12.5851
4 0 0 -7.55105
4 3.08271 0 -7.55105
3 0 3.55961 -8.18029
4 1.54135 2.6697 -7.55105
4 0 3.55961 -10.0681
3 0 1.7798 -10.6973
4 1.54135 0.8899 -10.0681
4 3.08271 3.55961 -10.0681
3 3.08271 1.7798 -10.6973
3 1.54135 0.8899 -8.18029
3 3.08271 3.55961 -8.18029
4 6.1654 0 -7.55105
3 6.1654 3.55961 -8.18029
4 4.62405 2.6697 -7.55105
4 7.70676 2.6697 -7.55105
3 6.1654 1.7798 -10.6973
4 7.70676 0.8899 -10.0681
3 7.70676 0.8899 -8.18029
4 4.62405 0.8899 -10.0681
3 4.62405 0.8899 -8.18029
4 6.1654 3.55961 -10.0681
4 12.3308 4.44088e-16 -7.55105
4 9.24811 4.44088e-16 -7.55105
3 12.3308 1.7798 -10.6973
4 10.7895 0.8899 -10.0681
4 9.24811 3.55961 -10.0681
3 9.24811 1.7798 -10.6973
3 10.7895 0.8899 -8.18029
3 9.24811 3.55961 -8.18029
4 12.3308 3.55961 -10.0681
4 10.7895 2.6697 -7.55105
3 12.3308 3.55961 -8.18029
4 15.4135 0 -7.55105
4 16.9549 0.8899 -10.0681
4 13.8722 0.8899 -10.0681
4 15.4135 3.55961 -10.0681
3 15.4135 1.7798 -10.6973
3 16.9549 0.8899 -8.18029
3 13.8722 0.8899 -8.18029
3 15.4135 3.55961 -8.18029
4 16.9549 2.6697 -7.55105
4 13.8722 2.6697 -7.55105
4 3.08271 5.3394 -7.55105
4 0 5.3394 -7.55105
3 1.54135 4.44949 -10.6973
3 3.08271 7.11919 -10.6973
4 1.54135 6.2293 -10.0681
3 0 7.11919 -10.6973
3 1.54135 6.2293 -8.18029
4 1.54135 8.0091 -7.55105
4 6.1654 5.3394 -7.55105
3 7.70676 4.44949 -10.6973
3 4.62405 4.44949 -10.6973
4 7.70676 6.2293 -10.0681
4 4.62405 6.2293 -10.0681
3 6.1654 7.11919 -10.6973
3 7.70676 6.2293 -8.18029
3 4.62405 6.2293 -8.18029
4 7.70676 8.0091 -7.55105
4 4.62405 8.0091 -7.55105
4 9.24811 5.3394 -7.55105
3 10.7895 4.44949 -10.6973
3 9.24811 7.11919 -10.6973
4 10.7895 6.2293 -10.0681
3 12.3308 7.11919 -10.6973
3 10.7895 6.2293 -8.18029
4 10.7895 8.0091 -7.55105
4 12.3308 5.3394 -7.55105
3 16.9549 4.44949 -10.6973
3 13.8722 4.44949 -10.6973
3 15.4135 7.11919 -10.6973
4 16.9549 6.2293 -10.0681
3 16.9549 6.2293 -8.18029
4 13.8722 6.2293 -10.0681
3 13.8722 6.2293 -8.18029
4 16.9549 8.0091 -7.55105
4 13.8722 8.0091 -7.55105
4 15.4135 5.3394 -7.55105
3 1.54135 9.78889 -10.6973
3 0 12.4586 -10.6973
4 1.54135 11.5687 -10.0681
3 3.08271 12.4586 -10.6973
3 1.54135 11.5687 -8.18029
4 0 8.899 -10.0681
3 0 8.899 -8.18029
4 3.08271 8.899 -10.0681
4 3.08271 10.6788 -7.55105
3 3.08271 8.899 -8.18029
4 0 10.6788 -7.55105
3 7.70676 9.78889 -10.6973
3 4.62405 9.78889 -10.6973
3 6.1654 12.4586 -10.6973
4 7.70676 11.5687 -10.0681
3 7.70676 11.5687 -8.18029
4 4.62405 11.5687 -10.0681
3 4.62405 11.5687 -8.18029
4 6.1654 8.899 -10.0681
3 6.1654 8.899 -8.18029
4 6.1654 10.6788 -7.55105
3 10.7895 9.78889 -10.6973
3 12.3308 12.4586 -10.6973
4 10.7895 11.5687 -10.0681
3 9.24811 12.4586 -10.6973
3 10.7895 11.5687 -8.18029
4 12.3308 8.899 -10.0681
3 12.3308 8.899 -8.18029
4 9.24811 8.899 -10.0681
4 9.24811 10.6788 -7.55105
3 9.24811 8.899 -8.18029
4 12.3308 10.6788 -7.55105
3 16.9549 9.78889 -10.6973
3 13.8722 9.78889 -10.6973
4 16.9549 11.5687 -10.0681
4 13.8722 11.5687 -10.0681
3 15.4135 12.4586 -10.6973
3 16.9549 11.5687 -8.18029
3 13.8722 11.5687 -8.18029
4 15.4135 8.899 -10.0681
4 15.4135 10.6788 -7.55105
3 15.4135 8.899 -8.18029
3 1.54135 15.1283 -10.6973
4 1.54135 16.9081 -10.0681
3 1.54135 16.9081 -8.18029
4 3.08271 14.2384 -10.0681
3 3.08271 14.2384 -8.18029
4 0 14.2384 -10.0681
4 1.54135 13.3485 -7.55105
4 0 16.0182 -7.55105
3 0 14.2384 -8.18029
4 3.08271 16.0182 -7.55105
2 6.1204 15.9392 -7.51503
3 7.70676 15.1283 -10.6973
3 4.62405 15.1283 -10.6973
4 7.70676 16.9081 -10.0681
4 4.62405 16.9081 -10.0681
3 7.70676 16.9081 -8.18029
3 4.62405 16.9081 -8.18029
4 6.1654 14.2384 -10.0681
4 7.70676 13.3485 -7.55105
4 4.62405 13.3485 -7.55105
3 6.1654 14.2384 -8.18029
3 10.7895 15.1283 -10.6973
4 10.7895 16.9081 -10.0681
3 10.7895 16.9081 -8.18029
4 9.24811 14.2384 -10.0681
3 9.24811 14.2384 -8.18029
4 12.3308 14.2384 -10.0681
4 10.7895 13.3485 -7.55105
4 12.3308 16.0182 -7.55105
3 12.3308 14.2384 -8.18029
4 9.24811 16.0182 -7.55105
2 15.4826 16.0116 -7.48584
3 16.9549 15.1283 -10.6973
3 13.8722 15.1283 -10.6973
4 16.9549 16.9081 -10.0681
3 16.9549 16.9081 -8.18029
4 13.8722 16.9081 -10.0681
3 13.8722 16.9081 -8.18029
4 15.4135 14.2384 -10.0681
3 15.4135 14.2384 -8.18029
4 16.9549 13.3485 -7.55105
4 13.8722 13.3485 -7.55105
3 1.54135 20.4677 -10.6973
3 3.08271 17.798 -10.6973
4 0 19.5778 -10.0681
3 0 17.798 -10.6973
3 0 19.5778 -8.18029
4 3.08271 19.5778 -10.0681
4 1.54135 18.6879 -7.55105
3 3.08271 19.5778 -8.18029
3 7.70676 20.4677 -10.6973
3 4.62405 20.4677 -10.6973
4 6.1654 19.5778 -10.0681
3 6.1654 17.798 -10.6973
3 6.1654 19.5778 -8.18029
4 7.70676 18.6879 -7.55105
4 4.62405 18.6879 -7.55105
3 10.7895 20.4677 -10.6973
3 9.24811 17.798 -10.6973
4 12.3308 19.5778 -10.0681
3 12.3308 17.798 -10.6973
3 12.3308 19.5778 -8.18029
4 9.24811 19.5778 -10.0681
4 10.7895 18.6879 -7.55105
3 9.24811 19.5778 -8.18029
2 16.9487 18.7322 -7.66716
3 16.9549 20.4677 -10.6973
3 13.8722 20.4677 -10.6973
3 15.4135 17.798 -10.6973
4 15.4135 19.5778 -10.0681
4 13.8722 18.6879 -7.55105
3 15.4135 19.5778 -8.18029
1 1.48456 2.67319 -5.69197
1 3.1678 21.3979 -5.65475
2 18.4026 1.90595 -5.04263
1 0.10358 0.0438029 -5.6442
1 18.3194 1.83065 -3.18525
2 2.97804 1.73621 -5.11198
2 1.36863 0.888955 -2.57112
2 18.6759 3.4765 -2.46527
1 6.2128 -0.037844 -5.76164
2 7.79503 0.935291 -2.44051
2 4.61046 0.931168 -2.26513
1 10.7642 2.6113 -5.5825
1 9.26466 21.386 -5.74775
2 12.3623 1.66719 -5.33324
1 12.2816 21.4172 -5.71471
2 9.24833 1.70373 -5.01194
2 10.8006 0.936385 -2.61421
2 9.39535 3.41934 -2.51437
1 9.21898 1.76805 -3.11938
2 12.0474 3.66554 -2.29425
1 16.8799 2.5232 -5.70841
1 13.8911 2.66677 -5.66575
2 15.3128 1.85011 -5.05274
2 17.0814 0.751379 -2.39279
2 13.9709 1.60551 -1.43198
2 15.4596 3.62492 -2.38718
1 1.57154 8.10614 -5.63371
1 18.4761 5.48173 -5.54052
2 1.47666 4.39243 -5.02434
2 2.98712 7.25953 -5.00209
1 3.00916 5.36758 -5.56533
1 1.49881 4.54197 -3.11947
1 3.0278 7.07532 -3.08949
2 -0.086542 7.13731 -4.87268
2 1.46977 6.24345 -2.59173
1 18.5584 7.19964 -3.04223
1 7.76354 8.05261 -5.61989
1 4.69372 8.05855 -5.5415
2 7.85388 4.29877 -4.82079
2 6.24843 7.2519 -5.00936
2 7.56916 6.31304 -2.38168
2 4.74998 6.28673 -2.34343
1 6.13152 7.20186 -3.06157
1 10.8523 8.0791 -5.60521
2 10.6078 4.21614 -5.01236
2 9.24301 7.0727 -4.99045
1 9.14429 5.39406 -5.64381
1 10.7255 4.363 -3.16831
1 9.1538 7.18126 -3.09168
2 10.8234 6.15383 -2.81102
1 12.3293 7.0315 -3.15325
1 16.8505 8.0993 -5.74017
2 14.0415 4.56423 -4.91109
1 15.5055 7.04946 -3.14883
2 16.9611 6.3664 -2.30544
2 13.9846 6.28907 -2.62944
2 1.51021 9.81718 -4.98409
2 0.0818273 12.4036 -5.31054
1 0.108405 10.7576 -5.5873
2 2.97268 12.3257 -4.93008
2 1.6982 11.5514 -2.45527
1 3.15505 12.5636 -3.14482
2 -0.0393821 8.96495 -2.27264
2 3.04333 8.85564 -2.48128
2 7.68639 9.86328 -5.12787
2 4.85241 9.81665 -4.93715
2 6.3245 12.3488 -4.90686
1 6.07388 10.7572 -5.62946
2 4.50271 11.6706 -2.42457
2 6.20414 8.91904 -2.3713
1 9.23687 10.7278 -5.58719
2 10.8055 9.77861 -5.0019
2 12.4085 12.4935 -5.08399
1 10.8944 9.86436 -3.20973
1 12.4478 12.5341 -3.18424
2 9.1515 12.3735 -4.9565
2 10.8895 11.7543 -2.68979
1 9.38823 12.5106 -3.22116
2 12.3763 9.15278 -2.54663
2 9.24683 9.04821 -2.37822
2 17.0217 9.67174 -4.91532
1 17.0147 9.89737 -3.24933
2 14.4513 9.70582 -5.04129
1 13.9243 9.87468 -3.28662
2 15.24 12.4787 -5.12632
2 16.9115 11.4002 -2.52603
2 13.6964 11.47 -2.44481
2 15.4173 8.99899 -2.55879
1 1.54612 13.3562 -5.63007
1 18.5164 15.9383 -5.71069
2 1.53471 15.0463 -5.0296
1 3.08687 16.1214 -5.58024
2 1.52152 17.2319 -2.37405
2 3.23564 14.2553 -2.45702
2 0.278347 14.0634 -2.64051
1 7.7082 13.2783 -5.57851
1 6.25835 16.0496 -5.627
2 7.37428 14.9019 -4.9687
1 7.65241 15.0553 -3.1271
2 4.6487 15.3226 -4.90081
1 4.64793 15.2265 -3.12354
2 4.68565 17.0631 -2.22224
2 6.24621 14.2989 -2.46406
2 10.8747 15.8049 -5.58522
2 12.3577 14.2236 -2.53949
1 13.8501 13.283 -5.79014
2 17.0779 14.9529 -5.16986
2 14.1607 14.9214 -4.94446
1 15.4999 15.9839 -5.62226
1 13.9268 15.1091 -3.13894
2 17.0896 16.817 -2.53233
2 14.0291 16.7228 -2.29294
2 15.384 14.2128 -2.38268
2 1.60989 20.4838 -4.87662
1 1.53695 20.5461 -2.97609
2 3.32737 17.798 -4.82994
1 3.17564 17.892 -2.96792
2 -0.0120865 17.5349 -4.99812
2 -0.0597397 19.6459 -2.47192
1 -0.0238958 17.783 -3.13426
2 3.03105 19.5847 -2.42366
1 7.75256 18.6378 -5.6153
1 4.68285 18.6729 -5.54708
2 7.71569 20.3713 -5.14593
2 4.74908 20.5159 -5.00129
1 7.63995 20.5944 -3.19875
1 4.65583 20.6352 -3.0209
2 6.16507 17.7242 -4.96595
2 6.27914 19.8496 -2.47029
1 10.8322 18.7291 -5.73641
2 10.7339 20.4533 -5.01418
1 10.8353 20.3993 -3.22944
2 12.0448 19.6057 -2.22221
1 13.8843 18.6622 -5.5091
2 17.0637 20.6705 -4.99667
1 16.9601 20.5135 -3.11373
2 13.5422 20.3626 -5.08136
2 15.4464 17.778 -4.90083
1 15.444 17.7425 -3.1222
2 15.564 19.4414 -2.4566
1 3.04798 3.6114 -0.542501
2 1.52526 2.77744 -0.119063
1 18.476 3.45727 -0.575173
2 3.17344 0.223627 -0.022857
1 7.64571 1.03671 -0.672497
2 7.71467 2.86158 -0.50225
2 4.44749 2.58384 -0.0570911
2 6.02337 0.35272 -0.259311
1 10.7189 0.996161 -0.50381
1 9.24478 3.63259 -0.656066
2 10.6671 2.72048 -0.0590087
1 12.2547 3.57601 -0.465351
2 9.22782 0.289747 -0.172248
2 12.218 21.2999 -0.275453
1 16.8922 0.819206 -0.501033
1 15.4705 3.55745 -0.600838
2 16.9272 2.66869 -0.250968
2 13.8345 2.50104 -0.177905
2 15.4625 21.1776 0.186095
2 1.50405 7.9615 -0.350993
2 -0.149927 5.22737 -0.0851207
2 3.21266 5.33912 -0.246638
1 7.77837 6.3337 -0.641477
1 4.61719 6.32713 -0.515428
2 7.69978 8.16456 -0.312205
2 4.64988 8.01143 -0.174591
2 6.22181 5.46772 -0.232192
2 10.8536 8.00208 -0.240326
2 12.3047 5.29605 -0.266721
2 9.11536 5.31043 -0.404693
1 16.9897 6.21572 -0.500725
1 13.8272 6.23377 -0.538917
2 16.9346 8.04561 -0.180139
2 14.0387 8.00438 -0.410182
2 15.4098 5.38205 -0.116353
1 1.57021 11.602 -0.495264
1 -0.0622404 8.87193 -0.382227
2 3.18708 10.7021 -0.0610493
1 3.04238 8.88853 -0.672479
2 0.0237412 10.6772 -0.316714
1 7.70229 11.6735 -0.546969
1 4.66696 11.5575 -0.511757
1 6.15959 8.936 -0.628281
2 6.08096 10.7129 -0.117845
1 9.26314 9.01598 -0.548584
2 12.6044 9.98373 -1.02206
1 16.9213 11.4992 -0.571386
1 13.8775 11.4587 -0.709991
2 15.3475 10.595 -0.370895
1 15.4336 8.86173 -0.756919
1 1.50998 16.8781 -0.531871
1 3.07149 14.2305 -0.587586
2 1.69342 13.2842 -0.0278559
2 0.0712886 16.1124 -0.0686732
2 3.11491 16.037 -0.412807
1 4.69551 16.983 -0.513725
2 4.67105 13.3745 -0.285967
2 6.19784 15.9786 -0.337822
1 6.22614 14.1313 -0.461178
1 12.4248 14.1857 -0.688065
2 9.61787 16.7977 -0.480551
1 13.8441 16.9563 -0.559867
1 15.553 14.2211 -0.357698
2 17.0402 13.2958 -0.353568
2 13.8664 13.341 -0.178993
1 3.04346 19.7634 -0.366308
1 6.21199 19.6673 -0.592509
2 7.72232 18.8716 -0.123047
2 4.64052 18.8204 -0.186296
1 12.3121 19.5192 -0.572529
2 16.8276 18.8204 0.380705
2 13.8126 18.752 -0.176332
1 15.3244 19.5928 -0.517947
2 5.01288 1.30436 -0.890444
420
Atoms. Timestep: 200
3 1.54135 2.6697 -13.2143
4 3.08271 8.88179e-16 -15.1021
3 3.08271 8.88179e-16 -13.2143
4 0 0 -15.1021
4 0 1.7798 -12.5851
3 0 0 -13.2143
4 3.08271 1.7798 -12.5851
3 7.70676 2.6697 -13.2143
3 4.62405 2.6697 -13.2143
4 6.1654 0 -15.1021
4 6.1654 1.7798 -12.5851
3 6.1654 0 -13.2143
3 10.7895 2.6697 -13.2143
3 9.24811 0 -13.2143
4 12.3308 0 -15.1021
4 12.3308 1.7798 -12.5851
3 12.3308 0 -13.2143
4 9.24811 1.7798 -12.5851
3 16.9549 2.6697 -13.2143
4 13.8722 2.6697 -15.1021
3 13.8722 2.6697 -13.2143
4 15.4135 8.88179e-16 -15.1021
3 15.4135 0 -13.2143
4 15.4135 1.7798 -12.5851
3 1.54135 8.0091 -13.2143
3 0 5.3394 -13.2143
4 1.54135 4.44949 -12.5851
4 3.08271 7.11919 -12.5851
3 3.08271 5.3394 -13.2143
4 0 7.11919 -12.5851