162
Atoms. Timestep: 0
4 0 0 -8.7192
4 2.1798 0 -6.5394
4 0 2.1798 -6.5394
4 2.1798 2.1798 -8.7192
3 1.0899 1.0899 -7.6293
3 3.2697 1.0899 -5.4495
3 1.0899 3.2697 -5.4495
3 3.2697 3.2697 -7.6293
4 4.3596 0 -8.7192
4 6.5394 0 -6.5394
4 4.3596 2.1798 -6.5394
4 6.5394 2.1798 -8.7192
3 5.4495 1.0899 -7.6293
3 7.6293 1.0899 -5.4495
3 5.4495 3.2697 -5.4495
3 7.6293 3.2697 -7.6293
4 8.7192 0 -8.7192
4 10.899 0 -6.5394
4 8.7192 2.1798 -6.5394
4 10.899 2.1798 -8.7192
3 9.8091 1.0899 -7.6293
3 11.9889 1.0899 -5.4495
3 9.8091 3.2697 -5.4495
3 11.9889 3.2697 -7.6293
4 0 4.3596 -8.7192
4 2.1798 4.3596 -6.5394
4 0 6.5394 -6.5394
4 2.1798 6.5394 -8.7192
3 1.0899 5.4495 -7.6293
3 3.2697 5.4495 -5.4495
3 1.0899 7.6293 -5.4495
3 3.2697 7.6293 -7.6293
4 4.3596 4.3596 -8.7192
4 6.5394 4.3596 -6.5394
4 4.3596 6.5394 -6.5394
4 6.5394 6.5394 -8.7192
3 5.4495 5.4495 -7.6293
3 7.6293 5.4495 -5.4495
3 5.4495 7.6293 -5.4495
3 7.6293 7.6293 -7.6293
4 8.7192 4.3596 -8.7192
4 10.899 4.3596 -6.5394
4 8.7192 6.5394 -6.5394
4 10.899 6.5394 -8.7192
3 9.8091 5.4495 -7.6293
3 11.9889 5.4495 -5.4495
3 9.8091 7.6293 -5.4495
3 11.9889 7.6293 -7.6293
4 0 8.7192 -8.7192
4 2.1798 8.7192 -6.5394
4 0 10.899 -6.5394
4 2.1798 10.899 -8.7192
3 1.0899 9.8091 -7.6293
3 3.2697 9.8091 -5.4495
3 1.0899 11.9889 -5.4495
3 3.2697 11.9889 -7.6293
4 4.3596 8.7192 -8.7192
4 6.5394 8.7192 -6.5394
4 4.3596 10.899 -6.5394
4 6.5394 10.899 -8.7192
3 5.4495 9.8091 -7.6293
3 7.6293 9.8091 -5.4495
3 5.4495 11.9889 -5.4495
3 7.6293 11.9889 -7.6293
4 8.7192 8.7192 -8.7192
4 10.899 8.7192 -6.5394
4 8.7192 10.899 -6.5394
4 10.899 10.899 -8.7192
3 9.8091 9.8091 -7.6293
3 11.9889 9.8091 -5.4495
3 9.8091 11.9889 -5.4495
3 11.9889 11.9889 -7.6293
2 2.13976 0.0488976 -2.19134
2 13.0754 2.1868 -2.1417
1 1.16642 1.10223 -3.26105
1 3.27569 1.06517 -1.1201
1 1.17625 3.25865 -1.0666
1 3.2756 3.31714 -3.28618
4 2.1798 2.1798 -4.3596
4 0 0 -4.3596
2 6.53554 0.0236054 -2.19002
2 4.33237 2.15682 -2.28998
1 5.43142 1.10743 -3.32807
1 7.63308 1.09343 -1.16464
1 5.43955 3.25571 -1.12159
1 7.58236 3.34243 -3.23186
4 6.5394 2.1798 -4.3596
4 4.3596 0 -4.3596
2 10.9535 13.0589 -2.25819
2 8.70116 2.11618 -2.23145
1 9.8713 1.06441 -3.24522
1 12.0049 1.03394 -1.10882
1 9.85069 3.18214 -1.1034
1 11.9775 3.31468 -3.27899
4 10.899 2.1798 -4.3596
4 8.7192 0 -4.3596
2 2.19354 4.3095 -2.2095
2 0.0208289 6.44292 -2.17146
1 1.13929 5.40527 -3.30041
1 3.23694 5.45586 -1.14797
1 1.04609 7.57446 -1.12124
1 3.24482 7.63029 -3.26381
4 2.1798 6.5394 -4.3596
4 0 4.3596 -4.3596
4 6.5394 6.5394 -4.3596
2 6.52626 4.44168 -2.19075
2 4.32891 6.54216 -2.20013
4 4.3596 4.3596 -4.3596
1 5.42769 5.49053 -3.28686
1 7.62988 5.42696 -1.02984
1 5.43845 7.58844 -1.09189
1 7.66872 7.66245 -3.26578
4 10.899 6.5394 -4.3596
4 8.7192 4.3596 -4.3596
2 10.8006 4.37713 -2.11087
2 8.68376 6.45967 -2.14763
1 9.79463 5.44019 -3.30576
1 12.0038 5.34214 -1.09368
1 9.78721 7.52191 -1.11292
1 11.9434 7.544 -3.25008
4 2.1798 10.899 -4.3596
4 0 8.7192 -4.3596
2 2.14167 8.71021 -2.29313
2 13.0222 10.9278 -2.2227
1 1.07062 9.82589 -3.28482
1 3.23477 9.82953 -1.1382
1 1.0834 11.9393 -1.18613
1 3.27332 12.0044 -3.31949
4 6.5394 10.899 -4.3596
4 4.3596 8.7192 -4.3596
2 6.59309 8.76639 -2.12768
2 4.38438 10.8664 -2.23675
1 5.50922 9.78993 -3.27308
1 7.69648 9.77337 -1.10565
1 5.42849 11.9677 -1.16201
1 7.62269 11.966 -3.24002
4 10.899 10.899 -4.3596
4 8.7192 8.7192 -4.3596
2 10.8411 8.72846 -2.2223
2 8.76957 10.7821 -2.22317
1 9.84121 9.76849 -3.29903
1 11.9868 9.81075 -1.02944
1 9.81529 11.9393 -1.16342
1 11.9642 11.9825 -3.31975
2 0.00768496 13.0231 -0.322419
2 2.23042 2.09411 -0.214178
2 4.39508 0.087816 -0.279485
2 6.4492 2.05863 -0.344042
2 8.69836 12.9874 -0.224485
2 11.014 2.1224 -0.275684
2 13.069 4.30911 -0.187393
2 2.17806 6.55704 -0.291396
2 4.40002 4.35859 -0.220805
2 6.3898 6.39464 -0.190637
2 8.78328 4.35045 -0.175413
2 10.758 6.34561 -0.199181
2 13.0161 8.65813 -0.157103
2 2.11436 10.8382 -0.274794
2 4.26345 8.58498 -0.232559
2 6.5042 10.8801 -0.266842
2 8.69838 8.61579 -0.190445
2 10.9248 10.9781 -0.19191
148
Atoms. Timestep: 100
4 0 0 -8.7192
4 2.1798 0 -6.5394
4 0 2.1798 -6.5394
4 2.1798 2.1798 -8.7192
3 1.0899 1.0899 -7.6293
3 3.2697 1.0899 -5.4495
3 1.0899 3.2697 -5.4495
3 3.2697 3.2697 -7.6293
4 4.3596 0 -8.7192
4 6.5394 0 -6.5394
4 4.3596 2.1798 -6.5394
4 6.5394 2.1798 -8.7192
3 5.4495 1.0899 -7.6293
3 7.6293 1.0899 -5.4495
3 5.4495 3.2697 -5.4495
3 7.6293 3.2697 -7.6293
4 8.7192 0 -8.7192
4 10.899 0 -6.5394
4 8.7192 2.1798 -6.5394
4 10.899 2.1798 -8.7192
3 9.8091 1.0899 -7.6293
3 11.9889 1.0899 -5.4495
3 9.8091 3.2697 -5.4495
3 11.9889 3.2697 -7.6293
4 0 4.3596 -8.7192
4 2.1798 4.3596 -6.5394
4 0 6.5394 -6.5394
4 2.1798 6.5394 -8.7192
3 1.0899 5.4495 -7.6293
3 3.2697 5.4495 -5.4495
3 1.0899 7.6293 -5.4495
3 3.2697 7.6293 -7.6293
4 4.3596 4.3596 -8.7192
4 6.5394 4.3596 -6.5394
4 4.3596 6.5394 -6.5394
4 6.5394 6.5394 -8.7192
3 5.4495 5.4495 -7.6293
3 7.6293 5.4495 -5.4495
3 5.4495 7.6293 -5.4495
3 7.6293 7.6293 -7.6293
4 8.7192 4.3596 -8.7192
4 10.899 4.3596 -6.5394
4 8.7192 6.5394 -6.5394
4 10.899 6.5394 -8.7192
3 9.8091 5.4495 -7.6293
3 11.9889 5.4495 -5.4495
3 9.8091 7.6293 -5.4495
3 11.9889 7.6293 -7.6293
4 0 8.7192 -8.7192
4 2.1798 8.7192 -6.5394
4 0 10.899 -6.5394
4 2.1798 10.899 -8.7192
3 1.0899 9.8091 -7.6293
3 3.2697 9.8091 -5.4495
3 1.0899 11.9889 -5.4495
3 3.2697 11.9889 -7.6293
4 4.3596 8.7192 -8.7192
4 6.5394 8.7192 -6.5394
4 4.3596 10.899 -6.5394
4 6.5394 10.899 -8.7192
3 5.4495 9.8091 -7.6293
3 7.6293 9.8091 -5.4495
3 5.4495 11.9889 -5.4495
3 7.6293 11.9889 -7.6293
4 8.7192 8.7192 -8.7192
4 10.899 8.7192 -6.5394
4 8.7192 10.899 -6.5394
4 10.899 10.899 -8.7192
3 9.8091 9.8091 -7.6293
3 11.9889 9.8091 -5.4495
3 9.8091 11.9889 -5.4495
3 11.9889 11.9889 -7.6293
2 2.3089 -0.090432 -2.21096
2 13.147 2.11682 -2.06407
1 1.15596 1.1221 -3.31028
1 3.22683 1.05588 -1.06624
1 1.15878 3.29705 -1.10904
1 3.26823 3.2261 -3.33292
4 2.1798 2.1798 -4.3596
4 0 0 -4.3596
2 6.43613 -0.0100921 -2.14227
2 4.2749 2.22671 -2.25536
1 5.38052 1.04959 -3.32665
1 7.70622 1.04337 -1.09392
1 5.35549 3.3465 -1.20769
1 7.66264 3.29185 -3.2536
4 6.5394 2.1798 -4.3596
4 4.3596 0 -4.3596
2 10.9626 12.9698 -2.28013
2 8.67601 2.21335 -2.26779
1 9.84181 1.05299 -3.23568
1 12.0103 1.07631 -1.12757
1 9.81584 3.23197 -1.15841
1 11.9555 3.27246 -3.24029
4 10.899 2.1798 -4.3596
4 8.7192 0 -4.3596
2 2.20409 4.36179 -2.28067
2 -0.0668284 6.35175 -2.11846
1 1.15904 5.43544 -3.29422
1 3.30029 5.39488 -1.16239
1 1.00098 7.50632 -1.1803
1 3.30053 7.64574 -3.2117
4 2.1798 6.5394 -4.3596
4 0 4.3596 -4.3596
4 6.5394 6.5394 -4.3596
2 6.50392 4.49034 -2.24201
2 4.32789 6.53918 -2.09733
4 4.3596 4.3596 -4.3596
1 5.46868 5.54408 -3.34257
1 7.60591 5.4697 -0.999376
1 5.44088 7.58142 -1.04868
1 7.662 7.69105 -3.23525
4 10.899 6.5394 -4.3596
4 8.7192 4.3596 -4.3596
2 10.8994 4.37198 -2.06499
2 8.82025 6.43632 -2.19767
1 9.83373 5.36632 -3.33677
1 11.9981 5.37903 -1.05011
1 9.80078 7.55158 -1.13628
1 11.9705 7.54871 -3.31628
4 2.1798 10.899 -4.3596
4 0 8.7192 -4.3596
2 2.10125 8.73161 -2.09344
2 13.142 10.9535 -2.25709
1 1.01458 9.82248 -3.30904
1 3.22397 9.74662 -1.15976
1 1.18271 12.008 -1.15587
1 3.23818 11.9955 -3.31759
4 6.5394 10.899 -4.3596
4 4.3596 8.7192 -4.3596
2 6.45444 8.75805 -2.08832
2 4.31432 10.8048 -2.1799
1 5.45637 9.86578 -3.31742
1 7.68941 9.76322 -1.06363
1 5.34489 11.9738 -1.11448
1 7.58407 11.9936 -3.29633
4 10.899 10.899 -4.3596
4 8.7192 8.7192 -4.3596
2 10.8852 8.65412 -2.02077
2 8.79098 10.9211 -2.1317
1 9.87804 9.77221 -3.26695
1 11.9471 9.88896 -1.05064
1 9.93402 11.9893 -1.14161
1 12.0311 12.0478 -3.34883
2 0.00834847 12.9092 -0.201001
2 2.1952 2.20141 -0.221392
2 8.67077 12.9443 -0.360025
2 2.08484 10.7231 -0.306894
144
Atoms. Timestep: 200
4 0 0 -8.7192
4 2.1798 0 -6.5394
4 0 2.1798 -6.5394
4 2.1798 2.1798 -8.7192
3 1.0899 1.0899 -7.6293
3 3.2697 1.0899 -5.4495
3 1.0899 3.2697 -5.4495
3 3.2697 3.2697 -7.6293
4 4.3596 0 -8.7192
4 6.5394 0 -6.5394
4 4.3596 2.1798 -6.5394
4 6.5394 2.1798 -8.7192
3 5.4495 1.0899 -7.6293
3 7.6293 1.0899 -5.4495
3 5.4495 3.2697 -5.4495
3 7.6293 3.2697 -7.6293
4 8.7192 0 -8.7192
4 10.899 0 -6.5394
4 8.7192 2.1798 -6.5394
4 10.899 2.1798 -8.7192
3 9.8091 1.0899 -7.6293
3 11.9889 1.0899 -5.4495
3 9.8091 3.2697 -5.4495
3 11.9889 3.2697 -7.6293
4 0 4.3596 -8.7192
4 2.1798 4.3596 -6.5394
4 0 6.5394 -6.5394
4 2.1798 6.5394 -8.7192
3 1.0899 5.4495 -7.6293
3 3.2697 5.4495 -5.4495
3 1.0899 7.6293 -5.4495
3 3.2697 7.6293 -7.6293
4 4.3596 4.3596 -8.7192
4 6.5394 4.3596 -6.5394
4 4.3596 6.5394 -6.5394
4 6.5394 6.5394 -8.7192
3 5.4495 5.4495 -7.6293
3 7.6293 5.4495 -5.4495
3 5.4495 7.6293 -5.4495
3 7.6293 7.6293 -7.6293
4 8.7192 4.3596 -8.7192
4 10.899 4.3596 -6.5394
4 8.7192 6.5394 -6.5394
4 10.899 6.5394 -8.7192
3 9.8091 5.4495 -7.6293
3 11.9889 5.4495 -5.4495
3 9.8091 7.6293 -5.4495
3 11.9889 7.6293 -7.6293
4 0 8.7192 -8.7192
4 2.1798 8.7192 -6.5394
4 0 10.899 -6.5394
4 2.1798 10.899 -8.7192
3 1.0899 9.8091 -7.6293
3 3.2697 9.8091 -5.4495
3 1.0899 11.9889 -5.4495
3 3.2697 11.9889 -7.6293
4 4.3596 8.7192 -8.7192
4 6.5394 8.7192 -6.5394
4 4.3596 10.899 -6.5394
4 6.5394 10.899 -8.7192
3 5.4495 9.8091 -7.6293
3 7.6293 9.8091 -5.4495
3 5.4495 11.9889 -5.4495
3 7.6293 11.9889 -7.6293
4 8.7192 8.7192 -8.7192
4 10.899 8.7192 -6.5394
4 8.7192 10.899 -6.5394
4 10.899 10.899 -8.7192
3 9.8091 9.8091 -7.6293
3 11.9889 9.8091 -5.4495
3 9.8091 11.9889 -5.4495
3 11.9889 11.9889 -7.6293
2 2.29737 13.0181 -2.19346
2 0.0962291 2.17662 -2.1912
1 1.05768 1.03909 -3.29977
1 3.30493 1.12906 -1.06659
1 1.0759 3.33731 -1.1614
1 3.24468 3.26165 -3.41211
4 2.1798 2.1798 -4.3596
4 0 0 -4.3596
2 6.41413 13.0472 -2.11014
2 4.32364 2.14235 -2.08867
1 5.38581 1.04787 -3.24424
1 7.72844 1.00184 -1.08956
1 5.28179 3.47653 -1.22866
1 7.65596 3.24529 -3.34381
4 6.5394 2.1798 -4.3596
4 4.3596 0 -4.3596
2 10.9524 13.1338 -2.13046
2 8.75534 2.21541 -2.09109
1 9.77868 1.06463 -3.28692
1 12.0515 1.0935 -1.12992
1 9.75241 3.286 -1.16269
1 12.039 3.18704 -3.22921
4 10.899 2.1798 -4.3596
4 8.7192 0 -4.3596
2 2.24117 4.36453 -2.22884
2 13.0188 6.3757 -2.14998
1 1.09659 5.39653 -3.36317
1 3.43951 5.28381 -1.16794
1 1.00757 7.56409 -1.14204
1 3.31603 7.56159 -3.28279
4 2.1798 6.5394 -4.3596
4 0 4.3596 -4.3596
4 6.5394 6.5394 -4.3596
2 6.55097 4.3984 -2.16024
2 4.42453 6.55804 -2.09063
4 4.3596 4.3596 -4.3596
1 5.47505 5.50696 -3.29962
1 7.58729 5.51672 -1.05853
1 5.43672 7.59701 -1.02683
1 7.59753 7.62559 -3.25514
4 10.899 6.5394 -4.3596
4 8.7192 4.3596 -4.3596
2 11.061 4.26742 -2.1181
2 8.78316 6.50372 -2.18665
1 9.87123 5.41628 -3.25177
1 12.256 5.09281 -0.835609
1 9.85241 7.57983 -1.11328
1 12.0053 7.60638 -3.29916
4 2.1798 10.899 -4.3596
4 0 8.7192 -4.3596
2 2.04405 8.6423 -2.05627
2 0.0628872 10.9565 -2.16295
1 1.03336 9.79395 -3.29952
1 3.23185 9.76014 -1.04935
1 1.17072 11.969 -1.08699
1 3.29635 11.9374 -3.33379
4 6.5394 10.899 -4.3596
4 4.3596 8.7192 -4.3596
2 6.43822 8.69476 -2.09629
2 4.24177 10.8816 -2.13316
1 5.38639 9.86736 -3.30349
1 7.67714 9.81554 -1.01441
1 5.25785 11.977 -1.08397
1 7.57917 12.0207 -3.30825
4 10.899 10.899 -4.3596
4 8.7192 8.7192 -4.3596
2 11.0369 8.62677 -2.00353
2 8.7473 11.0031 -2.08655
1 9.85841 9.79295 -3.23136
1 11.8868 10.0366 -1.10342
1 10.0644 11.9167 -1.11837
1 12.0621 11.9911 -3.2986
144
Atoms. Timestep: 300
4 0 0 -8.7192
4 2.1798 0 -6.5394
4 0 2.1798 -6.5394
4 2.1798 2.1798 -8.7192
3 1.0899 1.0899 -7.6293
3 3.2697 1.0899 -5.4495
3 1.0899 3.2697 -5.4495
3 3.2697 3.2697 -7.6293
4 4.3596 0 -8.7192
4 6.5394 0 -6.5394
4 4.3596 2.1798 -6.5394
4 6.5394 2.1798 -8.7192
3 5.4495 1.0899 -7.6293
3 7.6293 1.0899 -5.4495
3 5.4495 3.2697 -5.4495
3 7.6293 3.2697 -7.6293
4 8.7192 0 -8.7192
4 10.899 0 -6.5394
4 8.7192 2.1798 -6.5394
4 10.899 2.1798 -8.7192
3 9.8091 1.0899 -7.6293
3 11.9889 1.0899 -5.4495
3 9.8091 3.2697 -5.4495
3 11.9889 3.2697 -7.6293
4 0 4.3596 -8.7192
4 2.1798 4.3596 -6.5394
4 0 6.5394 -6.5394
4 2.1798 6.5394 -8.7192
3 1.0899 5.4495 -7.6293
3 3.2697 5.4495 -5.4495
3 1.0899 7.6293 -5.4495
3 3.2697 7.6293 -7.6293
4 4.3596 4.3596 -8.7192
4 6.5394 4.3596 -6.5394
4 4.3596 6.5394 -6.5394
4 6.5394 6.5394 -8.7192
3 5.4495 5.4495 -7.6293
3 7.6293 5.4495 -5.4495
3 5.4495 7.6293 -5.4495
3 7.6293 7.6293 -7.6293
4 8.7192 4.3596 -8.7192
4 10.899 4.3596 -6.5394
4 8.7192 6.5394 -6.5394
4 10.899 6.5394 -8.7192
3 9.8091 5.4495 -7.6293
3 11.9889 5.4495 -5.4495
3 9.8091 7.6293 -5.4495
3 11.9889 7.6293 -7.6293
4 0 8.7192 -8.7192
4 2.1798 8.7192 -6.5394
4 0 10.899 -6.5394
4 2.1798 10.899 -8.7192
3 1.0899 9.8091 -7.6293
3 3.2697 9.8091 -5.4495
3 1.0899 11.9889 -5.4495
3 3.2697 11.9889 -7.6293
4 4.3596 8.7192 -8.7192
4 6.5394 8.7192 -6.5394
4 4.3596 10.899 -6.5394
4 6.5394 10.899 -8.7192
3 5.4495 9.8091 -7.6293
3 7.6293 9.8091 -5.4495
3 5.4495 11.9889 -5.4495
3 7.6293 11.9889 -7.6293
4 8.7192 8.7192 -8.7192
4 10.899 8.7192 -6.5394
4 8.7192 10.899 -6.5394
4 10.899 10.899 -8.7192
3 9.8091 9.8091 -7.6293
3 11.9889 9.8091 -5.4495
3 9.8091 11.9889 -5.4495
3 11.9889 11.9889 -7.6293
2 2.14193 13.1501 -2.10071
2 0.0512009 2.16625 -2.28579
1 1.11151 1.03344 -3.26373
1 3.32618 1.16473 -1.05105
1 1.03726 3.41359 -1.13813
1 3.26144 3.27711 -3.32505
4 2.1798 2.1798 -4.3596
4 0 0 -4.3596
2 6.50107 13.03 -2.08028
2 4.40218 2.15053 -2.1181
1 5.47018 1.10058 -3.1783
1 7.70427 0.976473 -1.09658
1 5.20116 3.50283 -1.04164
1 7.60349 3.22853 -3.34675
4 6.5394 2.1798 -4.3596
4 4.3596 0 -4.3596
2 10.9687 0.188124 -2.13405
2 8.7408 2.07976 -2.07224
1 9.74557 1.11192 -3.31266
1 12.1227 1.10066 -1.09139
1 9.75785 3.3345 -1.09259
1 12.0454 3.19671 -3.37765
4 10.899 2.1798 -4.3596
4 8.7192 0 -4.3596
2 2.23095 4.314 -2.19808
2 13.1266 6.44921 -2.15728
1 1.04788 5.44309 -3.32793
1 3.56256 5.16845 -1.0693
1 1.01095 7.59953 -1.06352
1 3.25768 7.54725 -3.30463
4 2.1798 6.5394 -4.3596
4 0 4.3596 -4.3596
4 6.5394 6.5394 -4.3596
2 6.64348 4.31227 -2.14593
2 4.46983 6.52876 -2.19768
4 4.3596 4.3596 -4.3596
1 5.49136 5.45708 -3.37955
1 7.59037 5.53063 -1.15257
1 5.43315 7.63225 -1.02048
1 7.61004 7.63388 -3.28037
4 10.899 6.5394 -4.3596
4 8.7192 4.3596 -4.3596
2 11.0879 4.19999 -2.1214
2 8.66188 6.61394 -2.10311
1 9.91625 5.4995 -3.17924
1 12.2047 5.11726 -0.92297
1 9.9058 7.60566 -1.07272
1 12.0269 7.64275 -3.23983
4 2.1798 10.899 -4.3596
4 0 8.7192 -4.3596
2 2.15709 8.62615 -2.19832
2 0.027769 10.9185 -2.06187
1 1.10698 9.76696 -3.23361
1 3.20532 9.76629 -0.967951
1 1.16651 11.9305 -1.05676
1 3.24283 11.975 -3.33523
4 6.5394 10.899 -4.3596
4 4.3596 8.7192 -4.3596
2 6.57176 8.71557 -2.11394
2 4.24071 10.9218 -2.10134
1 5.41642 9.74025 -3.21716
1 7.64075 9.87323 -1.02038
1 5.23865 12.0056 -1.04099
1 7.59892 12.0216 -3.26475
4 10.899 10.899 -4.3596
4 8.7192 8.7192 -4.3596
2 11.0543 8.72034 -2.18505
2 8.68111 10.9439 -2.11086
1 9.74935 9.7997 -3.26155
1 11.8503 10.1246 -0.971627
1 10.1178 11.7619 -1.01545
1 12.0359 11.9672 -3.37554
144
Atoms. Timestep: 400
4 0 0 -8.7192
4 2.1798 0 -6.5394
4 0 2.1798 -6.5394
4 2.1798 2.1798 -8.7192
3 1.0899 1.0899 -7.6293
3 3.2697 1.0899 -5.4495
3 1.0899 3.2697 -5.4495
3 3.2697 3.2697 -7.6293
4 4.3596 0 -8.7192
4 6.5394 0 -6.5394
4 4.3596 2.1798 -6.5394
4 6.5394 2.1798 -8.7192
3 5.4495 1.0899 -7.6293
3 7.6293 1.0899 -5.4495
3 5.4495 3.2697 -5.4495
3 7.6293 3.2697 -7.6293
4 8.7192 0 -8.7192
4 10.899 0 -6.5394
4 8.7192 2.1798 -6.5394
4 10.899 2.1798 -8.7192
3 9.8091 1.0899 -7.6293
3 11.9889 1.0899 -5.4495
3 9.8091 3.2697 -5.4495
3 11.9889 3.2697 -7.6293
4 0 4.3596 -8.7192
4 2.1798 4.3596 -6.5394
4 0 6.5394 -6.5394
4 2.1798 6.5394 -8.7192
3 1.0899 5.4495 -7.6293
3 3.2697 5.4495 -5.4495
3 1.0899 7.6293 -5.4495
3 3.2697 7.6293 -7.6293
4 4.3596 4.3596 -8.7192
4 6.5394 4.3596 -6.5394
4 4.3596 6.5394 -6.5394
4 6.5394 6.5394 -8.7192
3 5.4495 5.4495 -7.6293
3 7.6293 5.4495 -5.4495
3 5.4495 7.6293 -5.4495
3 7.6293 7.6293 -7.6293
4 8.7192 4.3596 -8.7192
4 10.899 4.3596 -6.5394
4 8.7192 6.5394 -6.5394
4 10.899 6.5394 -8.7192
3 9.8091 5.4495 -7.6293
3 11.9889 5.4495 -5.4495
3 9.8091 7.6293 -5.4495
3 11.9889 7.6293 -7.6293
4 0 8.7192 -8.7192
4 2.1798 8.7192 -6.5394
4 0 10.899 -6.5394
4 2.1798 10.899 -8.7192
3 1.0899 9.8091 -7.6293
3 3.2697 9.8091 -5.4495
3 1.0899 11.9889 -5.4495
3 3.2697 11.9889 -7.6293
4 4.3596 8.7192 -8.7192
4 6.5394 8.7192 -6.5394
4 4.3596 10.899 -6.5394
4 6.5394 10.899 -8.7192
3 5.4495 9.8091 -7.6293
3 7.6293 9.8091 -5.4495
3 5.4495 11.9889 -5.4495
3 7.6293 11.9889 -7.6293
4 8.7192 8.7192 -8.7192
4 10.899 8.7192 -6.5394
4 8.7192 10.899 -6.5394
4 10.899 10.899 -8.7192
3 9.8091 9.8091 -7.6293
3 11.9889 9.8091 -5.4495
3 9.8091 11.9889 -5.4495
3 11.9889 11.9889 -7.6293
2 2.13218 0.0838911 -2.01667
2 0.0288821 2.173 -2.20971
1 1.14773 1.10698 -3.25701
1 3.28914 1.13297 -1.02966
1 0.970884 3.45039 -1.09169
1 3.29516 3.17257 -3.27966
4 2.1798 2.1798 -4.3596
4 0 0 -4.3596
2 6.56683 13.0321 -2.06418
2 4.40325 2.29251 -2.1878
1 5.5535 1.11024 -3.17872
1 7.65868 0.997956 -1.03434
1 5.18333 3.50044 -0.900415
1 7.63642 3.26278 -3.22962
4 6.5394 2.1798 -4.3596
4 4.3596 0 -4.3596
2 10.9466 0.0342795 -2.00773
2 8.65895 2.1047 -2.1769
1 9.78363 1.15456 -3.27814
1 12.1713 1.14231 -1.0736
1 9.78122 3.3281 -1.04735
1 11.9576 3.29792 -3.34208
4 10.899 2.1798 -4.3596
4 8.7192 0 -4.3596
2 2.21524 4.35545 -2.16589
2 0.0426487 6.53687 -2.0834
1 1.08546 5.51824 -3.26773
1 3.65694 5.1748 -0.930457
1 1.05177 7.62711 -1.02106
1 3.23344 7.5796 -3.26968
4 2.1798 6.5394 -4.3596
4 0 4.3596 -4.3596
4 6.5394 6.5394 -4.3596
2 6.53396 4.32407 -2.17609
2 4.39764 6.4485 -2.2275
4 4.3596 4.3596 -4.3596
1 5.43727 5.35048 -3.30368
1 7.60587 5.48268 -1.19342
1 5.45477 7.64051 -1.04056
1 7.65667 7.69092 -3.30962
4 10.899 6.5394 -4.3596
4 8.7192 4.3596 -4.3596
2 10.935 4.30064 -2.11794
2 8.7033 6.69129 -2.0714
1 9.90845 5.52342 -3.14401
1 12.2062 5.15487 -1.07056
1 9.92999 7.74119 -1.01409
1 12.0533 7.64091 -3.20135
4 2.1798 10.899 -4.3596
4 0 8.7192 -4.3596
2 2.2832 8.66534 -2.18556
2 0.011423 10.8919 -2.07802
1 1.1527 9.76309 -3.17487
1 3.15989 9.77184 -0.97352
1 1.17976 11.9238 -1.04979
1 3.20717 12.0169 -3.2622
4 6.5394 10.899 -4.3596
4 4.3596 8.7192 -4.3596
2 6.65256 8.7488 -2.07616
2 4.27888 10.8449 -2.09251
1 5.45167 9.71265 -3.15755
1 7.58697 9.90649 -1.06708
1 5.26959 12.0783 -1.02308
1 7.62753 11.9549 -3.24176
4 10.899 10.899 -4.3596
4 8.7192 8.7192 -4.3596
2 10.8529 8.89331 -2.21335
2 8.71339 10.8458 -2.1296
1 9.72756 9.84207 -3.28957
1 11.7978 10.1023 -0.841586
1 10.1274 11.6637 -0.961079
1 11.9596 12.0211 -3.35259
144
Atoms. Timestep: 500
4 0 0 -8.7192
4 2.1798 0 -6.5394
4 0 2.1798 -6.5394
4 2.1798 2.1798 -8.7192
3 1.0899 1.0899 -7.6293
3 3.2697 1.0899 -5.4495
3 1.0899 3.2697 -5.4495
3 3.2697 3.2697 -7.6293
4 4.3596 0 -8.7192
4 6.5394 0 -6.5394
4 4.3596 2.1798 -6.5394
4 6.5394 2.1798 -8.7192
3 5.4495 1.0899 -7.6293
3 7.6293 1.0899 -5.4495
3 5.4495 3.2697 -5.4495
3 7.6293 3.2697 -7.6293
4 8.7192 0 -8.7192
4 10.899 0 -6.5394
4 8.7192 2.1798 -6.5394
4 10.899 2.1798 -8.7192
3 9.8091 1.0899 -7.6293
3 11.9889 1.0899 -5.4495
3 9.8091 3.2697 -5.4495
3 11.9889 3.2697 -7.6293
4 0 4.3596 -8.7192
4 2.1798 4.3596 -6.5394
4 0 6.5394 -6.5394
4 2.1798 6.5394 -8.7192
3 1.0899 5.4495 -7.6293
3 3.2697 5.4495 -5.4495
3 1.0899 7.6293 -5.4495
3 3.2697 7.6293 -7.6293
4 4.3596 4.3596 -8.7192
4 6.5394 4.3596 -6.5394
4 4.3596 6.5394 -6.5394
4 6.5394 6.5394 -8.7192
3 5.4495 5.4495 -7.6293
3 7.6293 5.4495 -5.4495
3 5.4495 7.6293 -5.4495
3 7.6293 7.6293 -7.6293
4 8.7192 4.3596 -8.7192
4 10.899 4.3596 -6.5394
4 8.7192 6.5394 -6.5394
4 10.899 6.5394 -8.7192
3 9.8091 5.4495 -7.6293
3 11.9889 5.4495 -5.4495
3 9.8091 7.6293 -5.4495
3 11.9889 7.6293 -7.6293
4 0 8.7192 -8.7192
4 2.1798 8.7192 -6.5394
4 0 10.899 -6.5394
4 2.1798 10.899 -8.7192
3 1.0899 9.8091 -7.6293
3 3.2697 9.8091 -5.4495
3 1.0899 11.9889 -5.4495
3 3.2697 11.9889 -7.6293
4 4.3596 8.7192 -8.7192
4 6.5394 8.7192 -6.5394
4 4.3596 10.899 -6.5394
4 6.5394 10.899 -8.7192
3 5.4495 9.8091 -7.6293
3 7.6293 9.8091 -5.4495
3 5.4495 11.9889 -5.4495
3 7.6293 11.9889 -7.6293
4 8.7192 8.7192 -8.7192
4 10.899 8.7192 -6.5394
4 8.7192 10.899 -6.5394
4 10.899 10.899 -8.7192
3 9.8091 9.8091 -7.6293
3 11.9889 9.8091 -5.4495
3 9.8091 11.9889 -5.4495
3 11.9889 11.9889 -7.6293
2 2.23724 0.000402874 -2.06836
2 0.031715 2.29589 -2.11151
1 1.06548 1.17733 -3.26217
1 3.33879 1.04062 -1.04144
1 0.904158 3.51857 -1.07006
1 3.33642 3.20382 -3.25675
4 2.1798 2.1798 -4.3596
4 0 0 -4.3596
2 6.56477 13.0464 -2.07403
2 4.36997 2.25703 -2.06443
1 5.5447 1.08903 -3.21898
1 7.62249 1.03486 -0.996656
1 5.2254 3.48644 -0.848323
1 7.68136 3.27316 -3.17904
4 6.5394 2.1798 -4.3596
4 4.3596 0 -4.3596
2 10.935 -0.161429 -1.98973
2 8.67508 2.2593 -2.11608
1 9.84124 1.11656 -3.19481
1 12.1091 1.10731 -1.04953
1 9.78836 3.26966 -1.05429
1 11.8826 3.28452 -3.30885
4 10.899 2.1798 -4.3596
4 8.7192 0 -4.3596
2 2.23607 4.4036 -2.09852
2 -0.0207896 6.60002 -2.022
1 1.18942 5.51432 -3.27267
1 3.43487 5.24471 -0.80601
1 1.12562 7.64911 -1.01486
1 3.32259 7.65297 -3.2227
4 2.1798 6.5394 -4.3596
4 0 4.3596 -4.3596
4 6.5394 6.5394 -4.3596
2 6.37092 4.37792 -2.09928
2 4.30076 6.42704 -2.07192
4 4.3596 4.3596 -4.3596
1 5.43019 5.35755 -3.21265
1 7.6149 5.49508 -1.15393
1 5.49235 7.55611 -1.05225
1 7.64602 7.6384 -3.27072
4 10.899 6.5394 -4.3596
4 8.7192 4.3596 -4.3596
2 10.7669 4.46234 -2.1104
2 8.86156 6.67132 -2.1123
1 9.84381 5.52625 -3.16221
1 12.1908 5.29101 -1.05648
1 9.89344 7.76449 -1.04087
1 12.009 7.66417 -3.17881
4 2.1798 10.899 -4.3596
4 0 8.7192 -4.3596
2 2.19425 8.68773 -1.99782
2 -0.0292181 10.9087 -2.11745
1 1.09923 9.77711 -3.21153
1 3.16938 9.85834 -0.984593
1 1.19479 11.8868 -1.02465
1 3.26528 12.008 -3.18803
4 6.5394 10.899 -4.3596
4 4.3596 8.7192 -4.3596
2 6.55363 8.70712 -2.0667
2 4.32899 10.8145 -2.06466
1 5.43996 9.84488 -3.2271
1 7.56884 9.87592 -1.05632
1 5.27025 12.1911 -1.02397
1 7.63938 11.985 -3.23176
4 10.899 10.899 -4.3596
4 8.7192 8.7192 -4.3596
2 10.7809 8.95854 -2.05833
2 8.80597 10.8636 -2.09672
1 9.83599 9.86785 -3.36286
1 11.7798 10.0504 -0.815516
1 10.0718 11.6577 -0.912603
1 11.9204 12.0504 -3.21962
144
Atoms. Timestep: 600
4 0 0 -8.7192
4 2.1798 0 -6.5394
4 0 2.1798 -6.5394
4 2.1798 2.1798 -8.7192
3 1.0899 1.0899 -7.6293
3 3.2697 1.0899 -5.4495
3 1.0899 3.2697 -5.4495
3 3.2697 3.2697 -7.6293
4 4.3596 0 -8.7192
4 6.5394 0 -6.5394
4 4.3596 2.1798 -6.5394
4 6.5394 2.1798 -8.7192
3 5.4495 1.0899 -7.6293
3 7.6293 1.0899 -5.4495
3 5.4495 3.2697 -5.4495
3 7.6293 3.2697 -7.6293
4 8.7192 0 -8.7192
4 10.899 0 -6.5394
4 8.7192 2.1798 -6.5394
4 10.899 2.1798 -8.7192
3 9.8091 1.0899 -7.6293
3 11.9889 1.0899 -5.4495
3 9.8091 3.2697 -5.4495
3 11.9889 3.2697 -7.6293
4 0 4.3596 -8.7192
4 2.1798 4.3596 -6.5394
4 0 6.5394 -6.5394
4 2.1798 6.5394 -8.7192
3 1.0899 5.4495 -7.6293
3 3.2697 5.4495 -5.4495
3 1.0899 7.6293 -5.4495
3 3.2697 7.6293 -7.6293
4 4.3596 4.3596 -8.7192
4 6.5394 4.3596 -6.5394
4 4.3596 6.5394 -6.5394
4 6.5394 6.5394 -8.7192
3 5.4495 5.4495 -7.6293
3 7.6293 5.4495 -5.4495
3 5.4495 7.6293 -5.4495
3 7.6293 7.6293 -7.6293
4 8.7192 4.3596 -8.7192
4 10.899 4.3596 -6.5394
4 8.7192 6.5394 -6.5394
4 10.899 6.5394 -8.7192
3 9.8091 5.4495 -7.6293
3 11.9889 5.4495 -5.4495
3 9.8091 7.6293 -5.4495
3 11.9889 7.6293 -7.6293
4 0 8.7192 -8.7192
4 2.1798 8.7192 -6.5394
4 0 10.899 -6.5394
4 2.1798 10.899 -8.7192
3 1.0899 9.8091 -7.6293
3 3.2697 9.8091 -5.4495
3 1.0899 11.9889 -5.4495
3 3.2697 11.9889 -7.6293
4 4.3596 8.7192 -8.7192
4 6.5394 8.7192 -6.5394
4 4.3596 10.899 -6.5394
4 6.5394 10.899 -8.7192
3 5.4495 9.8091 -7.6293
3 7.6293 9.8091 -5.4495
3 5.4495 11.9889 -5.4495
3 7.6293 11.9889 -7.6293
4 8.7192 8.7192 -8.7192
4 10.899 8.7192 -6.5394
4 8.7192 10.899 -6.5394
4 10.899 10.899 -8.7192
3 9.8091 9.8091 -7.6293
3 11.9889 9.8091 -5.4495
3 9.8091 11.9889 -5.4495
3 11.9889 11.9889 -7.6293
2 2.21809 13.0324 -2.19723
2 -0.0815136 2.35156 -2.07088
1 1.01246 1.18852 -3.23771
1 3.48617 0.883404 -1.03803
1 0.83615 3.58946 -1.02551
1 3.30859 3.29538 -3.22863
4 2.1798 2.1798 -4.3596
4 0 0 -4.3596
2 6.54141 13.1166 -2.10712
2 4.39404 2.12104 -1.91931
1 5.48782 1.14065 -3.30848
1 7.61077 1.10843 -1.00513
1 5.26532 3.47214 -0.860335
1 7.61112 3.25229 -3.23311
4 6.5394 2.1798 -4.3596
4 4.3596 0 -4.3596
2 10.9082 12.9481 -1.98231
2 8.76949 2.21303 -1.95079
1 9.81684 1.02125 -3.09254
1 11.9877 1.03462 -1.03383
1 9.81491 3.24031 -1.05307
1 11.9227 3.29246 -3.21412
4 10.899 2.1798 -4.3596
4 8.7192 0 -4.3596
2 2.26723 4.3996 -2.01706
2 13.1133 6.62264 -2.08179
1 1.22447 5.51431 -3.26299
1 3.48578 5.28257 -0.815338
1 1.15999 7.62822 -1.00024
1 3.37428 7.69544 -3.1474
4 2.1798 6.5394 -4.3596
4 0 4.3596 -4.3596
4 6.5394 6.5394 -4.3596
2 6.43536 4.37591 -1.93124
2 4.31944 6.48592 -1.89032
4 4.3596 4.3596 -4.3596
1 5.39553 5.45573 -3.20119
1 7.60035 5.58535 -1.02823
1 5.54469 7.46044 -1.07339
1 7.63596 7.61766 -3.20561
4 10.899 6.5394 -4.3596
4 8.7192 4.3596 -4.3596
2 10.8303 4.46004 -2.05625
2 8.83464 6.5709 -2.13518
1 9.76745 5.52436 -3.27817
1 12.1435 5.43915 -0.99355
1 9.76336 7.72122 -1.08286
1 11.9305 7.70522 -3.15768
4 2.1798 10.899 -4.3596
4 0 8.7192 -4.3596
2 2.10524 8.76735 -1.97082
2 13.0062 10.9318 -2.08646
1 1.0082 9.7958 -3.26717
1 3.13827 10.0567 -0.987683
1 1.26466 11.7701 -0.997619
1 3.29592 11.9661 -3.26978
4 6.5394 10.899 -4.3596
4 4.3596 8.7192 -4.3596
2 6.40989 8.67775 -2.14877
2 4.39074 10.9599 -2.05178
1 5.43798 9.92444 -3.29181
1 7.58222 9.80849 -1.04926
1 5.25865 12.2856 -0.929388
1 7.66138 12.0357 -3.20963
4 10.899 10.899 -4.3596
4 8.7192 8.7192 -4.3596
2 10.9529 8.86149 -1.93455
2 8.81688 10.9118 -2.06478
1 9.86016 9.80011 -3.3048
1 11.8203 10.0445 -0.874982
1 9.95165 11.6964 -0.840679
1 12.02 12.0053 -3.16886
144
Atoms. Timestep: 700
4 0 0 -8.7192
4 2.1798 0 -6.5394
4 0 2.1798 -6.5394
4 2.1798 2.1798 -8.7192
3 1.0899 1.0899 -7.6293
3 3.2697 1.0899 -5.4495
3 1.0899 3.2697 -5.4495
3 3.2697 3.2697 -7.6293
4 4.3596 0 -8.7192
4 6.5394 0 -6.5394
4 4.3596 2.1798 -6.5394
4 6.5394 2.1798 -8.7192
3 5.4495 1.0899 -7.6293
3 7.6293 1.0899 -5.4495
3 5.4495 3.2697 -5.4495
3 7.6293 3.2697 -7.6293
4 8.7192 0 -8.7192
4 10.899 0 -6.5394
4 8.7192 2.1798 -6.5394
4 10.899 2.1798 -8.7192
3 9.8091 1.0899 -7.6293
3 11.9889 1.0899 -5.4495
3 9.8091 3.2697 -5.4495
3 11.9889 3.2697 -7.6293
4 0 4.3596 -8.7192
4 2.1798 4.3596 -6.5394
4 0 6.5394 -6.5394
4 2.1798 6.5394 -8.7192
3 1.0899 5.4495 -7.6293
3 3.2697 5.4495 -5.4495
3 1.0899 7.6293 -5.4495
3 3.2697 7.6293 -7.6293
4 4.3596 4.3596 -8.7192
4 6.5394 4.3596 -6.5394
4 4.3596 6.5394 -6.5394
4 6.5394 6.5394 -8.7192
3 5.4495 5.4495 -7.6293
3 7.6293 5.4495 -5.4495
3 5.4495 7.6293 -5.4495
3 7.6293 7.6293 -7.6293
4 8.7192 4.3596 -8.7192
4 10.899 4.3596 -6.5394
4 8.7192 6.5394 -6.5394
4 10.899 6.5394 -8.7192
3 9.8091 5.4495 -7.6293
3 11.9889 5.4495 -5.4495
3 9.8091 7.6293 -5.4495
3 11.9889 7.6293 -7.6293
4 0 8.7192 -8.7192
4 2.1798 8.7192 -6.5394
4 0 10.899 -6.5394
4 2.1798 10.899 -8.7192
3 1.0899 9.8091 -7.6293
3 3.2697 9.8091 -5.4495
3 1.0899 11.9889 -5.4495
3 3.2697 11.9889 -7.6293
4 4.3596 8.7192 -8.7192
4 6.5394 8.7192 -6.5394
4 4.3596 10.899 -6.5394
4 6.5394 10.899 -8.7192
3 5.4495 9.8091 -7.6293
3 7.6293 9.8091 -5.4495
3 5.4495 11.9889 -5.4495
3 7.6293 11.9889 -7.6293
4 8.7192 8.7192 -8.7192
4 10.899 8.7192 -6.5394
4 8.7192 10.899 -6.5394
4 10.899 10.899 -8.7192
3 9.8091 9.8091 -7.6293
3 11.9889 9.8091 -5.4495
3 9.8091 11.9889 -5.4495
3 11.9889 11.9889 -7.6293
2 2.13892 13.0507 -2.19858
2 12.9149 2.22973 -2.02773
1 1.01751 1.16416 -3.18136
1 3.58553 0.721167 -1.01229
1 0.811682 3.62551 -0.905233
1 3.24098 3.31503 -3.17203
4 2.1798 2.1798 -4.3596
4 0 0 -4.3596
2 6.50811 0.140806 -2.11546
2 4.44478 2.13588 -2.00317
1 5.40598 1.15405 -3.32621
1 7.60045 1.17722 -1.02531
1 5.2739 3.44781 -0.888067
1 7.56512 3.26515 -3.23793
4 6.5394 2.1798 -4.3596
4 4.3596 0 -4.3596
2 10.8646 13.0327 -1.99225
2 8.74037 2.12697 -1.95093
1 9.78209 1.00906 -3.08234
1 11.9458 1.00672 -0.983263
1 9.49171 3.75521 -0.879958
1 11.909 3.32172 -3.18709
4 10.899 2.1798 -4.3596
4 8.7192 0 -4.3596
2 2.25264 4.41097 -1.97174
2 0.104925 6.5991 -2.16137
1 1.14996 5.5231 -3.21862
1 3.51329 5.2949 -0.878489
1 1.16005 7.60727 -0.98495
1 3.31526 7.71303 -3.08846
4 2.1798 6.5394 -4.3596
4 0 4.3596 -4.3596
4 6.5394 6.5394 -4.3596
2 6.58948 4.39767 -1.95073
2 4.40456 6.55822 -2.00973
4 4.3596 4.3596 -4.3596
1 5.38664 5.46131 -3.3088
1 7.52539 5.65957 -0.89011
1 5.64773 7.4258 -0.960275
1 7.59691 7.66869 -3.25754
4 10.899 6.5394 -4.3596
4 8.7192 4.3596 -4.3596
2 10.938 4.44611 -2.02767
2 8.59935 6.53886 -2.14071
1 9.76254 5.46317 -3.35626
1 12.102 5.52121 -0.973236
1 9.6997 7.68955 -1.08334
1 11.974 7.65737 -3.1598
4 2.1798 10.899 -4.3596
4 0 8.7192 -4.3596
2 2.17946 8.88981 -2.11888
2 13.067 10.8812 -2.00427
1 0.994368 9.7868 -3.28491
1 3.06704 10.2065 -0.979891
1 1.35351 11.6848 -1.016
1 3.25886 11.9974 -3.40845
4 6.5394 10.899 -4.3596
4 4.3596 8.7192 -4.3596
2 6.46813 8.74043 -2.19966
2 4.40073 11.1443 -2.07391
1 5.46921 9.84565 -3.26863
1 7.59245 9.73773 -1.09651
1 5.26542 12.3446 -0.897595
1 7.62384 12.0019 -3.17501
4 10.899 10.899 -4.3596
4 8.7192 8.7192 -4.3596
2 10.9969 8.69367 -1.98652
2 8.69634 10.8614 -2.06398
1 9.7776 9.80263 -3.18216
1 11.8574 10.0429 -0.938041
1 9.88809 11.7616 -0.825068
1 12.0648 12.0072 -3.1972
144
Atoms. Timestep: 800
4 0 0 -8.7192
4 2.1798 0 -6.5394
4 0 2.1798 -6.5394
4 2.1798 2.1798 -8.7192
3 1.0899 1.0899 -7.6293
3 3.2697 1.0899 -5.4495
3 1.0899 3.2697 -5.4495
3 3.2697 3.2697 -7.6293
4 4.3596 0 -8.7192
4 6.5394 0 -6.5394
4 4.3596 2.1798 -6.5394
4 6.5394 2.1798 -8.7192
3 5.4495 1.0899 -7.6293
3 7.6293 1.0899 -5.4495
3 5.4495 3.2697 -5.4495
3 7.6293 3.2697 -7.6293
4 8.7192 0 -8.7192
4 10.899 0 -6.5394
4 8.7192 2.1798 -6.5394
4 10.899 2.1798 -8.7192
3 9.8091 1.0899 -7.6293
3 11.9889 1.0899 -5.4495
3 9.8091 3.2697 -5.4495
3 11.9889 3.2697 -7.6293
4 0 4.3596 -8.7192
4 2.1798 4.3596 -6.5394
4 0 6.5394 -6.5394
4 2.1798 6.5394 -8.7192
3 1.0899 5.4495 -7.6293
3 3.2697 5.4495 -5.4495
3 1.0899 7.6293 -5.4495
3 3.2697 7.6293 -7.6293
4 4.3596 4.3596 -8.7192
4 6.5394 4.3596 -6.5394
4 4.3596 6.5394 -6.5394
4 6.5394 6.5394 -8.7192
3 5.4495 5.4495 -7.6293
3 7.6293 5.4495 -5.4495