588
Atoms. Timestep: 0
4 1.54135 2.6697 -13.2143
3 3.08271 8.88179e-16 -15.1021
4 3.08271 8.88179e-16 -13.2143
3 0 0 -15.1021
3 0 1.7798 -12.5851
4 0 0 -13.2143
3 3.08271 1.7798 -12.5851
4 7.70676 2.6697 -13.2143
4 4.62405 2.6697 -13.2143
3 6.1654 0 -15.1021
3 6.1654 1.7798 -12.5851
4 6.1654 0 -13.2143
4 10.7895 2.6697 -13.2143
4 9.24811 0 -13.2143
3 12.3308 0 -15.1021
3 12.3308 1.7798 -12.5851
4 12.3308 0 -13.2143
3 9.24811 1.7798 -12.5851
4 16.9549 2.6697 -13.2143
3 13.8722 2.6697 -15.1021
4 13.8722 2.6697 -13.2143
3 15.4135 8.88179e-16 -15.1021
4 15.4135 0 -13.2143
3 15.4135 1.7798 -12.5851
4 1.54135 8.0091 -13.2143
4 0 5.3394 -13.2143
3 1.54135 4.44949 -12.5851
3 3.08271 7.11919 -12.5851
4 3.08271 5.3394 -13.2143
3 0 7.11919 -12.5851
4 7.70676 8.0091 -13.2143
4 4.62405 8.0091 -13.2143
4 6.1654 5.3394 -13.2143
3 7.70676 4.44949 -12.5851
3 4.62405 4.44949 -12.5851
3 6.1654 7.11919 -12.5851
4 10.7895 8.0091 -13.2143
4 12.3308 5.3394 -13.2143
3 10.7895 4.44949 -12.5851
3 9.24811 7.11919 -12.5851
4 9.24811 5.3394 -13.2143
3 12.3308 7.11919 -12.5851
4 16.9549 8.0091 -13.2143
4 13.8722 8.0091 -13.2143
3 16.9549 4.44949 -12.5851
3 13.8722 4.44949 -12.5851
3 15.4135 7.11919 -12.5851
4 15.4135 5.3394 -13.2143
3 3.08271 10.6788 -15.1021
4 3.08271 10.6788 -13.2143
3 0 10.6788 -15.1021
3 1.54135 9.78889 -12.5851
3 0 12.4586 -12.5851
4 0 10.6788 -13.2143
3 3.08271 12.4586 -12.5851
3 6.1654 10.6788 -15.1021
3 7.70676 9.78889 -12.5851
3 4.62405 9.78889 -12.5851
3 6.1654 12.4586 -12.5851
4 6.1654 10.6788 -13.2143
3 9.24811 10.6788 -15.1021
4 9.24811 10.6788 -13.2143
3 10.7895 9.78889 -12.5851
3 12.3308 12.4586 -12.5851
4 12.3308 10.6788 -13.2143
3 9.24811 12.4586 -12.5851
4 15.4135 10.6788 -13.2143
3 16.9549 9.78889 -12.5851
3 13.8722 9.78889 -12.5851
3 15.4135 12.4586 -12.5851
3 1.54135 13.3485 -15.1021
4 1.54135 13.3485 -13.2143
4 0 16.0182 -13.2143
3 1.54135 15.1283 -12.5851
4 3.08271 16.0182 -13.2143
3 7.70676 13.3485 -15.1021
4 7.70676 13.3485 -13.2143
4 4.62405 13.3485 -13.2143
4 6.1654 16.0182 -13.2143
3 7.70676 15.1283 -12.5851
3 4.62405 15.1283 -12.5851
4 10.7895 13.3485 -13.2143
4 12.3308 16.0182 -13.2143
3 10.7895 15.1283 -12.5851
4 9.24811 16.0182 -13.2143
4 16.9549 13.3485 -13.2143
4 13.8722 13.3485 -13.2143
3 16.9549 15.1283 -12.5851
3 13.8722 15.1283 -12.5851
4 15.4135 16.0182 -13.2143
4 1.54135 18.6879 -13.2143
3 1.54135 20.4677 -12.5851
3 3.08271 17.798 -12.5851
3 0 17.798 -12.5851
4 7.70676 18.6879 -13.2143
4 4.62405 18.6879 -13.2143
3 7.70676 20.4677 -12.5851
3 4.62405 20.4677 -12.5851
3 6.1654 17.798 -12.5851
4 10.7895 18.6879 -13.2143
3 10.7895 20.4677 -12.5851
3 9.24811 17.798 -12.5851
3 12.3308 17.798 -12.5851
4 16.9549 18.6879 -13.2143
4 13.8722 18.6879 -13.2143
3 16.9549 20.4677 -12.5851
3 13.8722 20.4677 -12.5851
3 15.4135 17.798 -12.5851
3 0 0 -7.55105
3 3.08271 0 -7.55105
4 0 3.55961 -8.18029
3 1.54135 2.6697 -7.55105
3 0 3.55961 -10.0681
4 0 1.7798 -10.6973
3 1.54135 0.8899 -10.0681
3 3.08271 3.55961 -10.0681
4 3.08271 1.7798 -10.6973
4 1.54135 0.8899 -8.18029
4 3.08271 3.55961 -8.18029
3 6.1654 0 -7.55105
4 6.1654 3.55961 -8.18029
3 4.62405 2.6697 -7.55105
3 7.70676 2.6697 -7.55105
4 6.1654 1.7798 -10.6973
3 7.70676 0.8899 -10.0681
4 7.70676 0.8899 -8.18029
3 4.62405 0.8899 -10.0681
4 4.62405 0.8899 -8.18029
3 6.1654 3.55961 -10.0681
3 12.3308 4.44088e-16 -7.55105
3 9.24811 4.44088e-16 -7.55105
4 12.3308 1.7798 -10.6973
3 10.7895 0.8899 -10.0681
3 9.24811 3.55961 -10.0681
4 9.24811 1.7798 -10.6973
4 10.7895 0.8899 -8.18029
4 9.24811 3.55961 -8.18029
3 12.3308 3.55961 -10.0681
3 10.7895 2.6697 -7.55105
4 12.3308 3.55961 -8.18029
3 15.4135 0 -7.55105
3 16.9549 0.8899 -10.0681
3 13.8722 0.8899 -10.0681
3 15.4135 3.55961 -10.0681
4 15.4135 1.7798 -10.6973
4 16.9549 0.8899 -8.18029
4 13.8722 0.8899 -8.18029
4 15.4135 3.55961 -8.18029
3 16.9549 2.6697 -7.55105
3 13.8722 2.6697 -7.55105
3 3.08271 5.3394 -7.55105
3 0 5.3394 -7.55105
4 1.54135 4.44949 -10.6973
4 3.08271 7.11919 -10.6973
3 1.54135 6.2293 -10.0681
4 0 7.11919 -10.6973
4 1.54135 6.2293 -8.18029
3 1.54135 8.0091 -7.55105
3 6.1654 5.3394 -7.55105
4 7.70676 4.44949 -10.6973
4 4.62405 4.44949 -10.6973
3 7.70676 6.2293 -10.0681
3 4.62405 6.2293 -10.0681
4 6.1654 7.11919 -10.6973
4 7.70676 6.2293 -8.18029
4 4.62405 6.2293 -8.18029
3 7.70676 8.0091 -7.55105
3 4.62405 8.0091 -7.55105
3 9.24811 5.3394 -7.55105
4 10.7895 4.44949 -10.6973
4 9.24811 7.11919 -10.6973
3 10.7895 6.2293 -10.0681
4 12.3308 7.11919 -10.6973
4 10.7895 6.2293 -8.18029
3 10.7895 8.0091 -7.55105
3 12.3308 5.3394 -7.55105
4 16.9549 4.44949 -10.6973
4 13.8722 4.44949 -10.6973
4 15.4135 7.11919 -10.6973
3 16.9549 6.2293 -10.0681
4 16.9549 6.2293 -8.18029
3 13.8722 6.2293 -10.0681
4 13.8722 6.2293 -8.18029
3 16.9549 8.0091 -7.55105
3 13.8722 8.0091 -7.55105
3 15.4135 5.3394 -7.55105
4 1.54135 9.78889 -10.6973
4 0 12.4586 -10.6973
3 1.54135 11.5687 -10.0681
4 3.08271 12.4586 -10.6973
4 1.54135 11.5687 -8.18029
3 0 8.899 -10.0681
4 0 8.899 -8.18029
3 3.08271 8.899 -10.0681
3 3.08271 10.6788 -7.55105
4 3.08271 8.899 -8.18029
3 0 10.6788 -7.55105
4 7.70676 9.78889 -10.6973
4 4.62405 9.78889 -10.6973
4 6.1654 12.4586 -10.6973
3 7.70676 11.5687 -10.0681
4 7.70676 11.5687 -8.18029
3 4.62405 11.5687 -10.0681
4 4.62405 11.5687 -8.18029
3 6.1654 8.899 -10.0681
4 6.1654 8.899 -8.18029
3 6.1654 10.6788 -7.55105
4 10.7895 9.78889 -10.6973
4 12.3308 12.4586 -10.6973
3 10.7895 11.5687 -10.0681
4 9.24811 12.4586 -10.6973
4 10.7895 11.5687 -8.18029
3 12.3308 8.899 -10.0681
4 12.3308 8.899 -8.18029
3 9.24811 8.899 -10.0681
3 9.24811 10.6788 -7.55105
4 9.24811 8.899 -8.18029
3 12.3308 10.6788 -7.55105
4 16.9549 9.78889 -10.6973
4 13.8722 9.78889 -10.6973
3 16.9549 11.5687 -10.0681
3 13.8722 11.5687 -10.0681
4 15.4135 12.4586 -10.6973
4 16.9549 11.5687 -8.18029
4 13.8722 11.5687 -8.18029
3 15.4135 8.899 -10.0681
3 15.4135 10.6788 -7.55105
4 15.4135 8.899 -8.18029
4 1.54135 15.1283 -10.6973
3 1.54135 16.9081 -10.0681
4 1.54135 16.9081 -8.18029
3 3.08271 14.2384 -10.0681
4 3.08271 14.2384 -8.18029
3 0 14.2384 -10.0681
3 1.54135 13.3485 -7.55105
3 0 16.0182 -7.55105
4 0 14.2384 -8.18029
3 3.08271 16.0182 -7.55105
1 6.12443 15.9406 -7.57397
4 7.70676 15.1283 -10.6973
4 4.62405 15.1283 -10.6973
3 7.70676 16.9081 -10.0681
3 4.62405 16.9081 -10.0681
4 7.70676 16.9081 -8.18029
4 4.62405 16.9081 -8.18029
3 6.1654 14.2384 -10.0681
3 7.70676 13.3485 -7.55105
3 4.62405 13.3485 -7.55105
4 6.1654 14.2384 -8.18029
4 10.7895 15.1283 -10.6973
3 10.7895 16.9081 -10.0681
4 10.7895 16.9081 -8.18029
3 9.24811 14.2384 -10.0681
4 9.24811 14.2384 -8.18029
3 12.3308 14.2384 -10.0681
3 10.7895 13.3485 -7.55105
3 12.3308 16.0182 -7.55105
4 12.3308 14.2384 -8.18029
3 9.24811 16.0182 -7.55105
1 15.4095 16.0334 -7.49426
4 16.9549 15.1283 -10.6973
4 13.8722 15.1283 -10.6973
3 16.9549 16.9081 -10.0681
4 16.9549 16.9081 -8.18029
3 13.8722 16.9081 -10.0681
4 13.8722 16.9081 -8.18029
3 15.4135 14.2384 -10.0681
4 15.4135 14.2384 -8.18029
3 16.9549 13.3485 -7.55105
3 13.8722 13.3485 -7.55105
4 1.54135 20.4677 -10.6973
4 3.08271 17.798 -10.6973
3 0 19.5778 -10.0681
4 0 17.798 -10.6973
4 0 19.5778 -8.18029
3 3.08271 19.5778 -10.0681
3 1.54135 18.6879 -7.55105
4 3.08271 19.5778 -8.18029
4 7.70676 20.4677 -10.6973
4 4.62405 20.4677 -10.6973
3 6.1654 19.5778 -10.0681
4 6.1654 17.798 -10.6973
4 6.1654 19.5778 -8.18029
3 7.70676 18.6879 -7.55105
3 4.62405 18.6879 -7.55105
4 10.7895 20.4677 -10.6973
4 9.24811 17.798 -10.6973
3 12.3308 19.5778 -10.0681
4 12.3308 17.798 -10.6973
4 12.3308 19.5778 -8.18029
3 9.24811 19.5778 -10.0681
3 10.7895 18.6879 -7.55105
4 9.24811 19.5778 -8.18029
1 16.9964 18.6537 -7.55437
4 16.9549 20.4677 -10.6973
4 13.8722 20.4677 -10.6973
4 15.4135 17.798 -10.6973
3 15.4135 19.5778 -10.0681
3 13.8722 18.6879 -7.55105
4 15.4135 19.5778 -8.18029
2 1.43614 2.70026 -5.67748
2 3.10995 21.3386 -5.58696
1 18.4705 1.81179 -4.92902
2 0.0234839 21.2541 -5.60366
2 0.0457683 1.78584 -2.9624
1 3.06536 1.74132 -5.08261
1 1.48275 0.860924 -2.4074
1 3.04548 3.56138 -2.49647
2 3.09788 1.75528 -3.14673
1 18.4676 3.6095 -2.38686
2 7.76399 2.52357 -5.45328
2 4.52197 2.73012 -5.62617
1 6.17082 1.65217 -4.95542
2 6.1617 21.2982 -5.78906
2 6.12471 1.79065 -3.07035
1 7.71416 0.89512 -2.51541
1 4.50818 0.916905 -2.37677
1 6.16065 3.51843 -2.47342
2 10.8543 2.62886 -5.63511
2 9.26683 21.3389 -5.69482
1 12.4597 1.70411 -4.99097
2 12.3743 21.3167 -5.69237
2 12.3271 1.74789 -3.16803
1 9.27665 1.6667 -4.93156
1 10.8467 0.876761 -2.51097
1 9.24942 3.5765 -2.52803
2 9.36297 1.69918 -3.10046
1 12.3757 3.5145 -2.49179
2 16.9778 2.68875 -5.60783
2 14.0125 2.64935 -5.63653
2 15.4255 0.0033821 -5.70953
1 15.4686 1.74425 -4.92464
1 16.862 0.911209 -2.37647
1 13.8457 0.838945 -2.37429
1 15.46 3.56433 -2.38513
2 15.3925 1.78984 -3.129
2 1.58671 7.94353 -5.55114
2 0.00598989 5.38216 -5.56138
1 1.47709 4.48433 -4.9132
1 3.10453 6.98197 -4.99659
2 3.04261 5.2664 -5.67661
2 1.46395 4.46425 -3.02625
2 3.17225 6.99811 -3.10119
1 0.0493486 7.1936 -4.99831
1 1.57215 6.23778 -2.4611
2 0.0844937 7.12481 -3.0293
2 7.71017 7.8587 -5.69065
2 4.58993 7.88986 -5.68271
2 6.10425 5.32182 -5.62882
1 7.67628 4.35522 -4.93192
2 7.64142 4.55337 -3.18434
1 4.59803 4.43399 -5.01359
2 4.63948 4.51359 -3.06047
1 6.174 7.04162 -4.99309
1 7.6424 6.20652 -2.4398
1 4.66066 6.22928 -2.4778
2 6.18377 7.04636 -3.10001
2 10.8317 8.0456 -5.68624
2 12.3381 5.3146 -5.62538
1 10.8035 4.48364 -5.0386
1 9.2711 7.1709 -4.96953
2 9.2212 5.32334 -5.66465
2 10.7363 4.48546 -3.18364
2 9.1287 7.08028 -2.97828
1 12.2544 7.07765 -5.00097
1 10.6611 6.1899 -2.51169
2 12.1876 7.10245 -3.10677
2 16.9781 8.07644 -5.59998
2 13.7961 8.13769 -5.56709
1 16.8973 4.50162 -5.0106
1 13.9176 4.44599 -4.94971
1 15.4745 7.19518 -5.01335
2 15.5065 5.47406 -5.71243
2 16.9215 4.47115 -3.08207
2 13.964 4.36329 -3.04383
2 15.4074 7.16257 -3.0097
1 16.9367 6.27576 -2.5303
1 13.9234 6.14522 -2.49553
2 3.06127 10.7039 -5.67929
1 1.5484 9.77007 -5.04316
1 18.4719 12.4684 -5.02592
2 18.4774 10.7909 -5.64474
2 1.61239 9.7009 -3.05968
2 18.4951 12.3786 -3.19056
1 3.02533 12.4499 -4.98949
1 1.60015 11.5219 -2.47759
2 3.14167 12.3486 -3.08373
1 0.0269706 8.94035 -2.37719
1 3.0941 8.85953 -2.4833
1 7.68692 9.7994 -5.01362
1 4.591 9.66642 -5.01879
1 6.15184 12.4094 -5.04757
2 6.17396 10.5967 -5.74559
2 7.55415 9.72979 -3.15383
2 4.58334 9.79395 -3.26565
2 6.33876 12.4651 -3.09185
1 7.71192 11.6065 -2.42836
1 4.72155 11.5747 -2.4295
1 6.08346 8.90896 -2.47813
2 9.31029 10.6106 -5.74324
1 10.8434 9.80269 -4.96971
1 12.3667 12.4598 -5.09061
2 12.4084 10.7179 -5.67129
2 10.7579 9.84581 -3.12293
2 12.3405 12.3788 -3.16443
1 9.22358 12.5085 -4.93053
1 10.7838 11.6419 -2.49771
2 9.30935 12.3985 -3.12103
1 12.2387 8.95088 -2.43561
1 9.16939 8.88275 -2.5328
2 15.4135 10.6655 -5.74158
1 16.8585 9.85693 -4.9769
2 17.0163 9.76102 -3.06959
1 13.836 9.83752 -5.02374
2 13.8324 9.82216 -3.10532
1 15.3442 12.4987 -5.07017
1 16.9606 11.5568 -2.51607
1 13.8757 11.5752 -2.46364
2 15.4268 12.5324 -3.02936
1 15.3285 8.99086 -2.44838
2 1.56798 13.3544 -5.60312
2 18.4483 15.9777 -5.51175
1 1.5376 15.0984 -4.9489
2 3.08866 15.8957 -5.64193
2 1.55165 15.1445 -2.94717
1 1.50599 16.8673 -2.46907
1 3.19493 14.2304 -2.37012
1 18.4043 14.204 -2.48016
2 7.67771 13.3514 -5.66779
2 4.56844 13.2697 -5.63949
2 6.19749 15.9474 -5.55072
1 7.66622 15.0654 -4.81923
2 7.63994 15.1804 -3.05534
1 4.63208 15.0022 -5.00064
2 4.64797 15.2566 -3.05899
1 7.79149 16.9125 -2.48571
1 4.63887 16.8722 -2.5003
1 6.20583 14.2026 -2.36602
2 10.8116 13.4046 -5.71919
2 12.3562 15.8949 -5.64097
1 10.6581 15.1631 -4.98351
2 9.11534 16.0301 -5.75855
2 10.6869 15.1247 -2.94796
1 10.803 16.8752 -2.50073
1 9.24151 14.1743 -2.39084
1 12.2848 14.2456 -2.41703
2 16.8596 13.3665 -5.5679
2 13.8339 13.2469 -5.70032
1 16.8954 15.1308 -4.97125
1 13.7702 15.0574 -4.97179
2 15.3597 16.0547 -5.48846
2 16.9764 15.0326 -3.04772
2 13.7287 15.0321 -2.96288
1 16.9085 16.8846 -2.38088
1 13.8219 16.9052 -2.42688
1 15.3522 14.2839 -2.26978
2 1.45588 18.6974 -5.63674
1 1.62665 20.4721 -4.96617
2 1.55749 20.4732 -3.07557
1 2.9798 17.7941 -5.05694
2 3.11256 17.7678 -3.20941
1 18.4143 17.8241 -4.88486
1 18.4796 19.5855 -2.43536
2 18.4882 17.8681 -3.12136
1 3.04938 19.4964 -2.5097
2 7.66189 18.54 -5.65096
2 4.50335 18.5443 -5.65477
1 7.61646 20.4017 -5.04984
1 4.574 20.428 -5.01172
2 7.86753 20.481 -3.00927
2 4.49207 20.3858 -3.08376
1 6.04658 17.7256 -5.03743
1 6.19895 19.5558 -2.5509
2 6.22266 17.7288 -3.08463
2 10.7977 18.6761 -5.631
1 10.8864 20.4176 -5.04504
2 10.9472 20.4618 -3.09025
1 9.22397 17.8519 -5.10696
2 9.31351 17.87 -3.00227
1 12.244 17.7074 -5.01187
1 12.418 19.6171 -2.47475
2 12.3042 17.8334 -3.10481
1 9.40551 19.6081 -2.46805
2 16.951 18.7542 -5.73125
2 13.9117 18.484 -5.63619
1 16.9299 20.5068 -4.9563
2 16.9222 20.5377 -3.14604
1 13.874 20.4374 -4.98759
2 13.8403 20.4975 -3.16023
1 15.4705 17.8261 -4.99031
2 15.2574 17.7586 -3.06684
1 15.3879 19.6229 -2.49882
2 1.50395 0.966192 -0.355081
2 3.00619 3.43894 -0.555516
1 1.45788 2.67284 0.136946
2 18.4656 3.55747 -0.324272
1 3.0029 21.2433 0.170895
1 18.4116 0.0318269 0.161049
2 7.69013 0.889223 -0.537997
2 4.51387 0.751027 -0.520297
1 7.71599 2.66607 -0.0590492
1 4.65533 2.58254 0.136191
2 6.20827 3.60401 -0.480096
1 6.19616 21.2223 0.0526157
2 10.8562 0.868372 -0.548629
2 9.30302 3.45248 -0.575934
1 10.918 2.61058 -0.0103298
2 12.4391 3.67284 -0.487345
1 9.32783 21.3315 0.0265797
1 12.3348 21.3154 0.0506826
2 16.9478 0.931958 -0.26915
2 13.9258 0.733571 -0.463544
2 15.5119 3.68591 -0.378096
1 16.9615 2.63049 0.257098
1 13.8968 2.80197 0.0222001
1 15.3678 21.3049 0.0885889
2 1.59121 6.23437 -0.473451
1 1.5199 8.10486 0.171892
1 18.4663 5.51966 0.00579921
1 3.13579 5.23932 -0.000634288
2 7.58199 6.18873 -0.397185
2 4.61921 6.18319 -0.478918
1 7.73404 8.07332 -0.0685937
1 4.54458 7.92905 0.0241029
1 6.15269 5.35932 0.129667
2 10.8058 6.20483 -0.488794
1 10.702 7.94936 -0.0830615
1 12.2772 5.40529 0.0492328
1 9.23781 5.24837 -0.0895856
2 16.9759 6.40017 -0.523106
2 13.8672 6.25243 -0.439139
1 16.8881 8.10275 0.0589284
1 13.8258 8.0494 -0.0362148
1 15.4489 5.39982 0.0104507
2 1.55667 11.5705 -0.583545
2 0.0162121 8.92878 -0.553582
1 3.1055 10.6489 0.0126556
2 3.05798 8.93036 -0.500604
1 4.29967e-05 10.7543 0.048961
2 7.59074 11.6367 -0.526761
2 4.81275 11.5062 -0.502749
2 6.10703 9.00532 -0.562281
1 6.22207 10.6764 0.152561
2 10.754 11.5847 -0.591791
2 12.2568 8.87831 -0.591549
1 9.28614 10.6452 -0.0453969
2 9.26537 8.92726 -0.653438
1 12.3176 10.6077 0.0652713
2 16.8904 11.5891 -0.510421
2 13.8702 11.5697 -0.44518
1 15.3973 10.8076 0.0767187
2 15.2748 9.05284 -0.541682
2 1.51395 16.8525 -0.457412
2 3.1015 14.1283 -0.490939
1 1.50301 13.3775 -0.0376344
1 18.4508 16.0282 -0.00114776
2 18.4858 14.249 -0.5473
1 3.01392 15.9455 0.086082
2 7.83622 16.8179 -0.555606
2 4.65461 16.9129 -0.510511
1 7.72445 13.3185 0.130543
1 4.55046 13.254 0.206446
1 6.24615 15.945 0.0476924
2 6.12129 14.148 -0.521747
2 10.8148 16.797 -0.556422
2 9.22808 14.3111 -0.391537
1 10.7425 13.3016 0.105654
1 12.2462 15.906 0.0973783
2 12.2434 14.1568 -0.443458
1 9.26017 16.0201 0.227981
2 16.8805 16.8652 -0.575873
2 13.8649 16.821 -0.412408
2 15.334 14.196 -0.248158
1 16.8784 13.3593 0.117827
1 13.792 13.3269 0.156216
1 15.4032 15.9811 0.18349
2 0.0324353 19.5984 -0.356621
1 1.46175 18.6497 0.100822
2 3.00377 19.5338 -0.518153
2 6.17224 19.5463 -0.491785
1 7.756 18.6321 0.0809774
1 4.58301 18.6775 0.0984053
2 12.3684 19.5364 -0.560983
1 10.8544 18.5869 -0.0691676
2 9.30702 19.5397 -0.57681
1 16.8696 18.6438 0.0370908
1 13.8764 18.6732 0.00845717
2 15.4564 19.5906 -0.473602
573
Atoms. Timestep: 100
4 1.54135 2.6697 -13.2143
3 3.08271 8.88179e-16 -15.1021
4 3.08271 8.88179e-16 -13.2143
3 0 0 -15.1021
3 0 1.7798 -12.5851
4 0 0 -13.2143
3 3.08271 1.7798 -12.5851
4 7.70676 2.6697 -13.2143
4 4.62405 2.6697 -13.2143
3 6.1654 0 -15.1021
3 6.1654 1.7798 -12.5851
4 6.1654 0 -13.2143
4 10.7895 2.6697 -13.2143
4 9.24811 0 -13.2143
3 12.3308 0 -15.1021
3 12.3308 1.7798 -12.5851
4 12.3308 0 -13.2143
3 9.24811 1.7798 -12.5851
4 16.9549 2.6697 -13.2143
3 13.8722 2.6697 -15.1021
4 13.8722 2.6697 -13.2143
3 15.4135 8.88179e-16 -15.1021
4 15.4135 0 -13.2143
3 15.4135 1.7798 -12.5851
4 1.54135 8.0091 -13.2143
4 0 5.3394 -13.2143
3 1.54135 4.44949 -12.5851
3 3.08271 7.11919 -12.5851
4 3.08271 5.3394 -13.2143
3 0 7.11919 -12.5851
4 7.70676 8.0091 -13.2143
4 4.62405 8.0091 -13.2143
4 6.1654 5.3394 -13.2143
3 7.70676 4.44949 -12.5851
3 4.62405 4.44949 -12.5851
3 6.1654 7.11919 -12.5851
4 10.7895 8.0091 -13.2143
4 12.3308 5.3394 -13.2143
3 10.7895 4.44949 -12.5851
3 9.24811 7.11919 -12.5851
4 9.24811 5.3394 -13.2143
3 12.3308 7.11919 -12.5851
4 16.9549 8.0091 -13.2143
4 13.8722 8.0091 -13.2143
3 16.9549 4.44949 -12.5851
3 13.8722 4.44949 -12.5851
3 15.4135 7.11919 -12.5851
4 15.4135 5.3394 -13.2143
3 3.08271 10.6788 -15.1021
4 3.08271 10.6788 -13.2143
3 0 10.6788 -15.1021
3 1.54135 9.78889 -12.5851
3 0 12.4586 -12.5851
4 0 10.6788 -13.2143
3 3.08271 12.4586 -12.5851
3 6.1654 10.6788 -15.1021
3 7.70676 9.78889 -12.5851
3 4.62405 9.78889 -12.5851
3 6.1654 12.4586 -12.5851
4 6.1654 10.6788 -13.2143
3 9.24811 10.6788 -15.1021
4 9.24811 10.6788 -13.2143
3 10.7895 9.78889 -12.5851
3 12.3308 12.4586 -12.5851
4 12.3308 10.6788 -13.2143
3 9.24811 12.4586 -12.5851
4 15.4135 10.6788 -13.2143
3 16.9549 9.78889 -12.5851
3 13.8722 9.78889 -12.5851
3 15.4135 12.4586 -12.5851
3 1.54135 13.3485 -15.1021
4 1.54135 13.3485 -13.2143
4 0 16.0182 -13.2143
3 1.54135 15.1283 -12.5851
4 3.08271 16.0182 -13.2143
3 7.70676 13.3485 -15.1021
4 7.70676 13.3485 -13.2143
4 4.62405 13.3485 -13.2143
4 6.1654 16.0182 -13.2143
3 7.70676 15.1283 -12.5851
3 4.62405 15.1283 -12.5851
4 10.7895 13.3485 -13.2143
4 12.3308 16.0182 -13.2143
3 10.7895 15.1283 -12.5851
4 9.24811 16.0182 -13.2143
4 16.9549 13.3485 -13.2143
4 13.8722 13.3485 -13.2143
3 16.9549 15.1283 -12.5851
3 13.8722 15.1283 -12.5851
4 15.4135 16.0182 -13.2143
4 1.54135 18.6879 -13.2143
3 1.54135 20.4677 -12.5851
3 3.08271 17.798 -12.5851
3 0 17.798 -12.5851
4 7.70676 18.6879 -13.2143
4 4.62405 18.6879 -13.2143
3 7.70676 20.4677 -12.5851
3 4.62405 20.4677 -12.5851
3 6.1654 17.798 -12.5851
4 10.7895 18.6879 -13.2143
3 10.7895 20.4677 -12.5851
3 9.24811 17.798 -12.5851
3 12.3308 17.798 -12.5851
4 16.9549 18.6879 -13.2143
4 13.8722 18.6879 -13.2143
3 16.9549 20.4677 -12.5851
3 13.8722 20.4677 -12.5851
3 15.4135 17.798 -12.5851
3 0 0 -7.55105
3 3.08271 0 -7.55105
4 0 3.55961 -8.18029
3 1.54135 2.6697 -7.55105
3 0 3.55961 -10.0681
4 0 1.7798 -10.6973
3 1.54135 0.8899 -10.0681
3 3.08271 3.55961 -10.0681
4 3.08271 1.7798 -10.6973
4 1.54135 0.8899 -8.18029
4 3.08271 3.55961 -8.18029
3 6.1654 0 -7.55105
4 6.1654 3.55961 -8.18029
3 4.62405 2.6697 -7.55105
3 7.70676 2.6697 -7.55105
4 6.1654 1.7798 -10.6973
3 7.70676 0.8899 -10.0681
4 7.70676 0.8899 -8.18029
3 4.62405 0.8899 -10.0681
4 4.62405 0.8899 -8.18029
3 6.1654 3.55961 -10.0681
3 12.3308 4.44088e-16 -7.55105
3 9.24811 4.44088e-16 -7.55105
4 12.3308 1.7798 -10.6973
3 10.7895 0.8899 -10.0681
3 9.24811 3.55961 -10.0681
4 9.24811 1.7798 -10.6973
4 10.7895 0.8899 -8.18029
4 9.24811 3.55961 -8.18029
3 12.3308 3.55961 -10.0681
3 10.7895 2.6697 -7.55105
4 12.3308 3.55961 -8.18029
3 15.4135 0 -7.55105
3 16.9549 0.8899 -10.0681
3 13.8722 0.8899 -10.0681
3 15.4135 3.55961 -10.0681
4 15.4135 1.7798 -10.6973
4 16.9549 0.8899 -8.18029
4 13.8722 0.8899 -8.18029
4 15.4135 3.55961 -8.18029
3 16.9549 2.6697 -7.55105
3 13.8722 2.6697 -7.55105
3 3.08271 5.3394 -7.55105
3 0 5.3394 -7.55105
4 1.54135 4.44949 -10.6973
4 3.08271 7.11919 -10.6973
3 1.54135 6.2293 -10.0681
4 0 7.11919 -10.6973
4 1.54135 6.2293 -8.18029
3 1.54135 8.0091 -7.55105
3 6.1654 5.3394 -7.55105
4 7.70676 4.44949 -10.6973
4 4.62405 4.44949 -10.6973
3 7.70676 6.2293 -10.0681
3 4.62405 6.2293 -10.0681
4 6.1654 7.11919 -10.6973
4 7.70676 6.2293 -8.18029
4 4.62405 6.2293 -8.18029
3 7.70676 8.0091 -7.55105
3 4.62405 8.0091 -7.55105
3 9.24811 5.3394 -7.55105
4 10.7895 4.44949 -10.6973
4 9.24811 7.11919 -10.6973
3 10.7895 6.2293 -10.0681
4 12.3308 7.11919 -10.6973
4 10.7895 6.2293 -8.18029
3 10.7895 8.0091 -7.55105
3 12.3308 5.3394 -7.55105
4 16.9549 4.44949 -10.6973
4 13.8722 4.44949 -10.6973
4 15.4135 7.11919 -10.6973
3 16.9549 6.2293 -10.0681
4 16.9549 6.2293 -8.18029
3 13.8722 6.2293 -10.0681
4 13.8722 6.2293 -8.18029
3 16.9549 8.0091 -7.55105
3 13.8722 8.0091 -7.55105
3 15.4135 5.3394 -7.55105
4 1.54135 9.78889 -10.6973
4 0 12.4586 -10.6973
3 1.54135 11.5687 -10.0681
4 3.08271 12.4586 -10.6973
4 1.54135 11.5687 -8.18029
3 0 8.899 -10.0681
4 0 8.899 -8.18029
3 3.08271 8.899 -10.0681
3 3.08271 10.6788 -7.55105
4 3.08271 8.899 -8.18029
3 0 10.6788 -7.55105
4 7.70676 9.78889 -10.6973
4 4.62405 9.78889 -10.6973
4 6.1654 12.4586 -10.6973
3 7.70676 11.5687 -10.0681
4 7.70676 11.5687 -8.18029
3 4.62405 11.5687 -10.0681
4 4.62405 11.5687 -8.18029
3 6.1654 8.899 -10.0681
4 6.1654 8.899 -8.18029
3 6.1654 10.6788 -7.55105
4 10.7895 9.78889 -10.6973
4 12.3308 12.4586 -10.6973
3 10.7895 11.5687 -10.0681
4 9.24811 12.4586 -10.6973
4 10.7895 11.5687 -8.18029
3 12.3308 8.899 -10.0681
4 12.3308 8.899 -8.18029
3 9.24811 8.899 -10.0681
3 9.24811 10.6788 -7.55105
4 9.24811 8.899 -8.18029
3 12.3308 10.6788 -7.55105
4 16.9549 9.78889 -10.6973
4 13.8722 9.78889 -10.6973
3 16.9549 11.5687 -10.0681
3 13.8722 11.5687 -10.0681
4 15.4135 12.4586 -10.6973
4 16.9549 11.5687 -8.18029
4 13.8722 11.5687 -8.18029
3 15.4135 8.899 -10.0681
3 15.4135 10.6788 -7.55105
4 15.4135 8.899 -8.18029
4 1.54135 15.1283 -10.6973
3 1.54135 16.9081 -10.0681
4 1.54135 16.9081 -8.18029
3 3.08271 14.2384 -10.0681
4 3.08271 14.2384 -8.18029
3 0 14.2384 -10.0681
3 1.54135 13.3485 -7.55105
3 0 16.0182 -7.55105
4 0 14.2384 -8.18029
3 3.08271 16.0182 -7.55105
1 6.13378 15.9476 -7.49293
4 7.70676 15.1283 -10.6973
4 4.62405 15.1283 -10.6973
3 7.70676 16.9081 -10.0681
3 4.62405 16.9081 -10.0681
4 7.70676 16.9081 -8.18029
4 4.62405 16.9081 -8.18029
3 6.1654 14.2384 -10.0681
3 7.70676 13.3485 -7.55105
3 4.62405 13.3485 -7.55105
4 6.1654 14.2384 -8.18029
4 10.7895 15.1283 -10.6973
3 10.7895 16.9081 -10.0681
4 10.7895 16.9081 -8.18029
3 9.24811 14.2384 -10.0681
4 9.24811 14.2384 -8.18029
3 12.3308 14.2384 -10.0681
3 10.7895 13.3485 -7.55105
3 12.3308 16.0182 -7.55105
4 12.3308 14.2384 -8.18029
3 9.24811 16.0182 -7.55105
1 15.4637 16.02 -7.4699
4 16.9549 15.1283 -10.6973
4 13.8722 15.1283 -10.6973
3 16.9549 16.9081 -10.0681
4 16.9549 16.9081 -8.18029
3 13.8722 16.9081 -10.0681
4 13.8722 16.9081 -8.18029
3 15.4135 14.2384 -10.0681
4 15.4135 14.2384 -8.18029
3 16.9549 13.3485 -7.55105
3 13.8722 13.3485 -7.55105
4 1.54135 20.4677 -10.6973
4 3.08271 17.798 -10.6973
3 0 19.5778 -10.0681
4 0 17.798 -10.6973
4 0 19.5778 -8.18029
3 3.08271 19.5778 -10.0681
3 1.54135 18.6879 -7.55105
4 3.08271 19.5778 -8.18029
4 7.70676 20.4677 -10.6973
4 4.62405 20.4677 -10.6973
3 6.1654 19.5778 -10.0681
4 6.1654 17.798 -10.6973
4 6.1654 19.5778 -8.18029
3 7.70676 18.6879 -7.55105
3 4.62405 18.6879 -7.55105
4 10.7895 20.4677 -10.6973
4 9.24811 17.798 -10.6973
3 12.3308 19.5778 -10.0681
4 12.3308 17.798 -10.6973
4 12.3308 19.5778 -8.18029
3 9.24811 19.5778 -10.0681
3 10.7895 18.6879 -7.55105
4 9.24811 19.5778 -8.18029
1 16.9682 18.7117 -7.53209
4 16.9549 20.4677 -10.6973
4 13.8722 20.4677 -10.6973
4 15.4135 17.798 -10.6973
3 15.4135 19.5778 -10.0681
3 13.8722 18.6879 -7.55105
4 15.4135 19.5778 -8.18029
2 1.48235 2.55951 -5.67069
2 3.16289 21.4047 -5.71093
1 18.3948 1.86681 -4.95195
2 0.0927613 21.4817 -5.58064
2 -0.103104 1.82026 -3.07087
1 3.09862 1.73687 -5.07357
1 1.52699 0.836756 -2.49807
1 3.07611 3.58992 -2.54928
2 2.91809 1.75995 -3.17472
1 18.5402 3.60017 -2.38371
2 7.61871 2.65642 -5.53445
2 4.74923 2.51853 -5.58548
1 6.1497 1.62721 -4.93483
2 6.17618 21.2195 -5.6607
2 6.03888 1.70807 -3.1182
1 7.75432 0.931753 -2.45887
1 4.53814 0.881636 -2.34803
1 6.11668 3.56068 -2.49604
2 10.816 2.53215 -5.59817
2 9.31265 21.3724 -5.72377
1 12.3696 1.69651 -5.06204
2 12.2575 21.4046 -5.7185
2 12.3232 1.77691 -3.09847
1 9.25748 1.71859 -4.99505
1 10.8829 0.922562 -2.52108
2 9.27272 1.55723 -3.05498
1 12.2784 3.60505 -2.44005
2 16.8413 2.5866 -5.67148
2 13.9081 2.64282 -5.67993
2 15.4124 -0.106518 -5.64809
1 15.3804 1.79622 -4.99211
1 16.9181 0.911579 -2.38219
1 13.9129 0.971704 -2.39614
1 15.5399 3.63555 -2.36854
2 15.4728 1.85469 -3.06714
2 1.60221 8.09769 -5.6423
2 -0.022659 5.42271 -5.48052
1 1.46882 4.3879 -4.94392
1 3.00692 7.11651 -5.01652
2 3.00576 5.24403 -5.53295
2 1.62767 4.56759 -3.10866
2 3.01035 7.00299 -3.12543
1 -0.00310985 7.12048 -4.89385
1 1.54233 6.23721 -2.44485
2 0.110845 7.15048 -3.05596
2 7.73398 7.97622 -5.60176
2 4.72473 7.97279 -5.53158
2 6.26041 5.21923 -5.71723
1 7.79746 4.30223 -4.90006
2 7.62271 4.58758 -3.07297
1 4.69278 4.41278 -4.9676
2 4.53897 4.49693 -3.05896
1 6.2046 7.0205 -5.08339
1 7.61996 6.23567 -2.37068
1 4.62979 6.14887 -2.42575
2 6.0844 7.14899 -3.03974
2 10.8856 8.15179 -5.5477
2 12.4383 5.43065 -5.52863
1 10.7808 4.33972 -5.10969
1 9.23847 7.08275 -4.97137
2 9.15094 5.40615 -5.62052
2 10.7278 4.31268 -3.13735
2 9.05585 7.19389 -3.03372
1 12.3094 7.17313 -4.93441
1 10.7944 6.13414 -2.56737
2 12.3393 6.98687 -3.16351
2 16.852 8.1067 -5.7484
2 13.7843 7.94525 -5.63548
1 16.9555 4.46521 -4.92495
1 13.9438 4.48649 -4.97496
1 15.3625 7.16067 -4.93535
2 15.3914 5.39556 -5.73929
2 16.9254 4.58057 -2.9891
2 13.8386 4.46002 -3.16962
2 15.4878 7.12691 -3.05481
1 16.9645 6.27108 -2.40644
1 13.951 6.21225 -2.46585
2 3.11184 10.6641 -5.57839
1 1.51445 9.80773 -4.9455
1 18.444 12.4604 -5.11478
2 18.5591 10.7225 -5.59205
2 1.58227 9.83754 -3.07747
2 18.4164 12.4303 -3.152
1 3.05284 12.3661 -4.99079
1 1.64969 11.5007 -2.50842
2 3.18534 12.5617 -3.0619
1 0.0851993 8.9502 -2.35237
1 3.09035 8.86252 -2.51265
1 7.66047 9.7858 -5.03011
1 4.67209 9.77295 -4.98146
1 6.21797 12.4014 -4.96972
2 6.04526 10.713 -5.71995
2 7.62534 9.87673 -3.12461
2 4.65394 9.87363 -3.04348
2 6.14583 12.5262 -3.16518
1 7.69187 11.5296 -2.46693
1 4.66111 11.6325 -2.42736
1 6.0984 8.88908 -2.45299
2 9.15841 10.7845 -5.5338
1 10.8654 9.85005 -5.02936
1 12.2851 12.4289 -5.1399
2 12.3458 10.6282 -5.65947
2 10.84 9.87992 -3.22462
2 12.4186 12.5482 -3.14325
1 9.24172 12.4355 -4.94842
1 10.8246 11.5884 -2.52966
2 9.28079 12.4514 -3.12138
1 12.2845 9.01192 -2.51405
1 9.0996 8.97846 -2.48619
2 15.3431 10.7993 -5.74652
1 16.8969 9.75848 -4.95533
2 17.0341 9.88427 -3.17707
1 13.9076 9.83681 -5.07899
2 13.7549 9.93639 -3.19106
1 15.3644 12.4631 -5.05772
1 16.8959 11.5516 -2.47455
1 13.7889 11.6462 -2.39078
2 15.357 12.2396 -3.08251
1 15.3713 9.0004 -2.46926
2 1.46879 13.3167 -5.59332
2 18.4823 16.0082 -5.7104
1 1.52491 15.0392 -4.87285
2 3.12032 16.0457 -5.5795
2 1.59001 15.063 -3.08102
1 1.43946 16.9535 -2.48088
1 3.15186 14.2001 -2.41208
1 18.5316 14.0653 -2.49271
2 7.76885 13.2578 -5.55773
2 4.60554 13.2962 -5.59693
2 6.19888 15.9293 -5.56842
1 7.63929 15.009 -4.95515
2 7.63259 15.0445 -3.08319
1 4.63119 14.9605 -4.96078
2 4.6535 15.0709 -3.12468
1 7.80439 16.863 -2.44906
1 4.69755 16.9705 -2.36189
1 6.21777 14.1506 -2.41212
2 10.8573 13.3871 -5.76384
2 12.1846 15.8729 -5.52319
1 10.6357 15.1099 -5.0144
2 9.04269 15.9043 -5.5473
2 10.7854 15.1417 -3.19268
1 10.7899 16.8866 -2.43287
1 9.22045 14.2588 -2.41471
1 12.2214 14.2328 -2.40496
2 17.0237 13.3635 -5.77918
2 13.8054 13.2568 -5.80151
1 16.9676 15.0218 -5.05459
1 13.8831 15.0369 -4.91468
2 15.4425 15.9676 -5.61842
2 17.1322 15.1256 -3.19501
2 13.6712 15.1489 -3.03687
1 16.9425 16.8264 -2.50978
1 13.8291 16.8453 -2.32754
2 1.42765 18.7452 -5.59638
1 1.56249 20.4303 -4.97112
2 1.50907 20.4914 -3.09291
1 3.04276 17.7721 -5.0138
2 3.15558 17.7161 -3.07466
1 18.4585 17.7511 -5.02659
1 18.4137 19.6861 -2.38449
2 18.4088 17.8604 -3.14105
1 3.02692 19.4582 -2.50287
2 7.64762 18.5596 -5.6182
2 4.57203 18.6033 -5.59032
1 7.64856 20.3268 -5.1093
1 4.66553 20.3982 -5.01409
2 7.69368 20.5792 -3.17215
2 4.61489 20.5584 -2.97829
1 6.03039 17.6479 -4.95626
1 6.25946 19.6359 -2.51998
2 6.12604 17.7742 -3.16213
2 10.8784 18.7424 -5.77561
1 10.7947 20.4209 -4.994
2 10.891 20.3832 -3.1193
1 9.17093 17.7335 -5.04813
2 9.36189 17.8688 -3.21359
1 12.2464 17.785 -5.0122
1 12.3477 19.5313 -2.43164
2 12.2385 17.8124 -3.06432
1 9.31957 19.7035 -2.43169
2 16.8368 18.792 -5.60094
2 13.8336 18.6495 -5.52301
1 16.9528 20.5638 -5.04013
2 16.9929 20.6073 -3.10586
1 13.834 20.3712 -5.03324
2 13.911 20.3923 -2.99911
1 15.3946 17.8124 -4.95361
2 15.3633 17.8222 -3.15772
1 15.388 19.5696 -2.53765
2 1.61796 0.825459 -0.66092
2 3.07464 3.52311 -0.63701
1 1.56243 2.62014 0.107512
2 18.4703 3.52896 -0.315846
1 3.02544 21.3684 0.221226
2 7.60454 1.01262 -0.743699
2 4.4858 0.692345 -0.589882
1 7.7181 2.68083 -0.0682467
2 6.38068 3.67341 -0.617348
1 6.13196 21.3526 0.0531019
2 10.8298 0.992984 -0.555503
2 9.46353 3.48875 -0.663759
1 10.8301 2.63446 0.10976
2 12.2926 3.56871 -0.437626
1 12.3228 21.2269 0.0111443
2 16.7801 0.988291 -0.39762
2 13.8803 0.755776 -0.357583
2 15.5127 3.43478 -0.589177
1 16.9865 2.75371 0.307285
1 13.9133 2.69216 0.144561
1 15.4072 21.1991 0.22286
2 1.60566 6.22574 -0.594493
1 18.4111 5.4462 0.0587005
1 3.18811 5.18838 -0.0015505
2 7.81569 6.26326 -0.591026
2 4.56169 6.13109 -0.771729
2 10.7912 6.17849 -0.618252
1 10.7155 7.95765 -0.0847495
1 12.2915 5.35379 0.149195
1 9.23454 5.247 -0.0725274
2 17.0801 6.39048 -0.724257
2 13.6798 6.33346 -0.433712
1 16.8707 8.12432 0.030706
1 13.8832 8.04805 -0.0238131
2 1.67026 11.429 -0.663306
2 -0.164907 8.96233 -0.503604
1 3.21381 10.698 0.0821075
2 3.03124 8.9233 -0.752302
1 0.0544498 10.8118 0.114793
2 7.50943 11.6327 -0.717498
2 4.77859 11.4297 -0.43194
2 6.24444 8.94957 -0.724162
1 6.19194 10.6159 0.277644
2 10.939 11.6485 -0.682353
2 12.1626 8.78334 -0.656894
2 9.38148 9.01033 -0.756478
1 12.3624 10.662 0.137862
2 16.849 11.5441 -0.430441
2 13.8698 11.6096 -0.608776
1 15.3218 10.739 0.0142034
2 15.4417 8.94907 -0.64145
2 1.40966 16.8321 -0.501089
2 3.11351 14.0956 -0.522417
1 18.4369 16.063 0.0955748
2 18.3453 14.2219 -0.484863