162
Atoms. Timestep: 0
4 0 0 -8.7192
4 2.1798 0 -6.5394
4 0 2.1798 -6.5394
4 2.1798 2.1798 -8.7192
3 1.0899 1.0899 -7.6293
3 3.2697 1.0899 -5.4495
3 1.0899 3.2697 -5.4495
3 3.2697 3.2697 -7.6293
4 4.3596 0 -8.7192
4 6.5394 0 -6.5394
4 4.3596 2.1798 -6.5394
4 6.5394 2.1798 -8.7192
3 5.4495 1.0899 -7.6293
3 7.6293 1.0899 -5.4495
3 5.4495 3.2697 -5.4495
3 7.6293 3.2697 -7.6293
4 8.7192 0 -8.7192
4 10.899 0 -6.5394
4 8.7192 2.1798 -6.5394
4 10.899 2.1798 -8.7192
3 9.8091 1.0899 -7.6293
3 11.9889 1.0899 -5.4495
3 9.8091 3.2697 -5.4495
3 11.9889 3.2697 -7.6293
4 0 4.3596 -8.7192
4 2.1798 4.3596 -6.5394
4 0 6.5394 -6.5394
4 2.1798 6.5394 -8.7192
3 1.0899 5.4495 -7.6293
3 3.2697 5.4495 -5.4495
3 1.0899 7.6293 -5.4495
3 3.2697 7.6293 -7.6293
4 4.3596 4.3596 -8.7192
4 6.5394 4.3596 -6.5394
4 4.3596 6.5394 -6.5394
4 6.5394 6.5394 -8.7192
3 5.4495 5.4495 -7.6293
3 7.6293 5.4495 -5.4495
3 5.4495 7.6293 -5.4495
3 7.6293 7.6293 -7.6293
4 8.7192 4.3596 -8.7192
4 10.899 4.3596 -6.5394
4 8.7192 6.5394 -6.5394
4 10.899 6.5394 -8.7192
3 9.8091 5.4495 -7.6293
3 11.9889 5.4495 -5.4495
3 9.8091 7.6293 -5.4495
3 11.9889 7.6293 -7.6293
4 0 8.7192 -8.7192
4 2.1798 8.7192 -6.5394
4 0 10.899 -6.5394
4 2.1798 10.899 -8.7192
3 1.0899 9.8091 -7.6293
3 3.2697 9.8091 -5.4495
3 1.0899 11.9889 -5.4495
3 3.2697 11.9889 -7.6293
4 4.3596 8.7192 -8.7192
4 6.5394 8.7192 -6.5394
4 4.3596 10.899 -6.5394
4 6.5394 10.899 -8.7192
3 5.4495 9.8091 -7.6293
3 7.6293 9.8091 -5.4495
3 5.4495 11.9889 -5.4495
3 7.6293 11.9889 -7.6293
4 8.7192 8.7192 -8.7192
4 10.899 8.7192 -6.5394
4 8.7192 10.899 -6.5394
4 10.899 10.899 -8.7192
3 9.8091 9.8091 -7.6293
3 11.9889 9.8091 -5.4495
3 9.8091 11.9889 -5.4495
3 11.9889 11.9889 -7.6293
2 2.13976 0.0488976 -2.19134
2 13.0754 2.1868 -2.1417
1 1.16642 1.10223 -3.26105
1 3.27569 1.06517 -1.1201
1 1.17625 3.25865 -1.0666
1 3.2756 3.31714 -3.28618
4 2.1798 2.1798 -4.3596
4 0 0 -4.3596
2 6.53554 0.0236054 -2.19002
2 4.33237 2.15682 -2.28998
1 5.43142 1.10743 -3.32807
1 7.63308 1.09343 -1.16464
1 5.43955 3.25571 -1.12159
1 7.58236 3.34243 -3.23186
4 6.5394 2.1798 -4.3596
4 4.3596 0 -4.3596
2 10.9535 13.0589 -2.25819
2 8.70116 2.11618 -2.23145
1 9.8713 1.06441 -3.24522
1 12.0049 1.03394 -1.10882
1 9.85069 3.18214 -1.1034
1 11.9775 3.31468 -3.27899
4 10.899 2.1798 -4.3596
4 8.7192 0 -4.3596
2 2.19354 4.3095 -2.2095
2 0.0208289 6.44292 -2.17146
1 1.13929 5.40527 -3.30041
1 3.23694 5.45586 -1.14797
1 1.04609 7.57446 -1.12124
1 3.24482 7.63029 -3.26381
4 2.1798 6.5394 -4.3596
4 0 4.3596 -4.3596
4 6.5394 6.5394 -4.3596
2 6.52626 4.44168 -2.19075
2 4.32891 6.54216 -2.20013
4 4.3596 4.3596 -4.3596
1 5.42769 5.49053 -3.28686
1 7.62988 5.42696 -1.02984
1 5.43845 7.58844 -1.09189
1 7.66872 7.66245 -3.26578
4 10.899 6.5394 -4.3596
4 8.7192 4.3596 -4.3596
2 10.8006 4.37713 -2.11087
2 8.68376 6.45967 -2.14763
1 9.79463 5.44019 -3.30576
1 12.0038 5.34214 -1.09368
1 9.78721 7.52191 -1.11292
1 11.9434 7.544 -3.25008
4 2.1798 10.899 -4.3596
4 0 8.7192 -4.3596
2 2.14167 8.71021 -2.29313
2 13.0222 10.9278 -2.2227
1 1.07062 9.82589 -3.28482
1 3.23477 9.82953 -1.1382
1 1.0834 11.9393 -1.18613
1 3.27332 12.0044 -3.31949
4 6.5394 10.899 -4.3596
4 4.3596 8.7192 -4.3596
2 6.59309 8.76639 -2.12768
2 4.38438 10.8664 -2.23675
1 5.50922 9.78993 -3.27308
1 7.69648 9.77337 -1.10565
1 5.42849 11.9677 -1.16201
1 7.62269 11.966 -3.24002
4 10.899 10.899 -4.3596
4 8.7192 8.7192 -4.3596
2 10.8411 8.72846 -2.2223
2 8.76957 10.7821 -2.22317
1 9.84121 9.76849 -3.29903
1 11.9868 9.81075 -1.02944
1 9.81529 11.9393 -1.16342
1 11.9642 11.9825 -3.31975
2 0.00768496 13.0231 -0.322419
2 2.23042 2.09411 -0.214178
2 4.39508 0.087816 -0.279485
2 6.4492 2.05863 -0.344042
2 8.69836 12.9874 -0.224485
2 11.014 2.1224 -0.275684
2 13.069 4.30911 -0.187393
2 2.17806 6.55704 -0.291396
2 4.40002 4.35859 -0.220805
2 6.3898 6.39464 -0.190637
2 8.78328 4.35045 -0.175413
2 10.758 6.34561 -0.199181
2 13.0161 8.65813 -0.157103
2 2.11436 10.8382 -0.274794
2 4.26345 8.58498 -0.232559
2 6.5042 10.8801 -0.266842
2 8.69838 8.61579 -0.190445
2 10.9248 10.9781 -0.19191
162
Atoms. Timestep: 2
2 10.9248 10.9781 -0.19191
4 0 0 -8.7192
4 2.1798 0 -6.5394
4 0 2.1798 -6.5394
4 2.1798 2.1798 -8.7192
3 1.0899 1.0899 -7.6293
3 3.2697 1.0899 -5.4495
3 1.0899 3.2697 -5.4495
3 3.2697 3.2697 -7.6293
4 4.3596 0 -8.7192
4 6.5394 0 -6.5394
4 4.3596 2.1798 -6.5394
4 6.5394 2.1798 -8.7192
3 5.4495 1.0899 -7.6293
3 7.6293 1.0899 -5.4495
3 5.4495 3.2697 -5.4495
3 7.6293 3.2697 -7.6293
4 8.7192 0 -8.7192
4 10.899 0 -6.5394
4 8.7192 2.1798 -6.5394
4 10.899 2.1798 -8.7192
3 9.8091 1.0899 -7.6293
3 11.9889 1.0899 -5.4495
3 9.8091 3.2697 -5.4495
3 11.9889 3.2697 -7.6293
4 0 4.3596 -8.7192
4 2.1798 4.3596 -6.5394
4 0 6.5394 -6.5394
4 2.1798 6.5394 -8.7192
3 1.0899 5.4495 -7.6293
3 3.2697 5.4495 -5.4495
3 1.0899 7.6293 -5.4495
3 3.2697 7.6293 -7.6293
4 4.3596 4.3596 -8.7192
4 6.5394 4.3596 -6.5394
4 4.3596 6.5394 -6.5394
4 6.5394 6.5394 -8.7192
3 5.4495 5.4495 -7.6293
3 7.6293 5.4495 -5.4495
3 5.4495 7.6293 -5.4495
3 7.6293 7.6293 -7.6293
4 8.7192 4.3596 -8.7192
4 10.899 4.3596 -6.5394
4 8.7192 6.5394 -6.5394
4 10.899 6.5394 -8.7192
3 9.8091 5.4495 -7.6293
3 11.9889 5.4495 -5.4495
3 9.8091 7.6293 -5.4495
3 11.9889 7.6293 -7.6293
4 0 8.7192 -8.7192
4 2.1798 8.7192 -6.5394
4 0 10.899 -6.5394
4 2.1798 10.899 -8.7192
3 1.0899 9.8091 -7.6293
3 3.2697 9.8091 -5.4495
3 1.0899 11.9889 -5.4495
3 3.2697 11.9889 -7.6293
4 4.3596 8.7192 -8.7192
4 6.5394 8.7192 -6.5394
4 4.3596 10.899 -6.5394
4 6.5394 10.899 -8.7192
3 5.4495 9.8091 -7.6293
3 7.6293 9.8091 -5.4495
3 5.4495 11.9889 -5.4495
3 7.6293 11.9889 -7.6293
4 8.7192 8.7192 -8.7192
4 10.899 8.7192 -6.5394
4 8.7192 10.899 -6.5394
4 10.899 10.899 -8.7192
3 9.8091 9.8091 -7.6293
3 11.9889 9.8091 -5.4495
3 9.8091 11.9889 -5.4495
3 11.9889 11.9889 -7.6293
2 2.17701 0.0093131 -2.19863
2 13.0906 2.18585 -2.1626
1 1.11147 1.11258 -3.2704
1 3.27143 1.07636 -1.14238
1 1.16424 3.26708 -1.03797
1 3.3143 3.27225 -3.28758
4 2.1798 2.1798 -4.3596
4 0 0 -4.3596
2 6.52886 0.00948327 -2.21222
2 4.33615 2.17266 -2.25867
1 5.44176 1.09294 -3.31583
1 7.64196 1.06211 -1.14687
1 5.42977 3.26469 -1.16708
1 7.60679 3.31069 -3.25671
4 6.5394 2.1798 -4.3596
4 4.3596 0 -4.3596
2 10.9339 13.0529 -2.2295
2 8.71468 2.1486 -2.22007
1 9.84236 1.07314 -3.2785
1 12.0241 1.02401 -1.14567
1 9.8183 3.19384 -1.08579
1 11.9738 3.26999 -3.29384
4 10.899 2.1798 -4.3596
4 8.7192 0 -4.3596
2 2.15623 4.28795 -2.24406
2 0.00249034 6.44924 -2.18534
1 1.10567 5.45162 -3.27619
1 1.04506 7.59816 -1.13361
1 3.24276 7.61838 -3.27393
4 2.1798 6.5394 -4.3596
4 0 4.3596 -4.3596
4 6.5394 6.5394 -4.3596
2 6.51973 4.41806 -2.18023
2 4.36923 6.58025 -2.23648
4 4.3596 4.3596 -4.3596
1 5.42173 5.47101 -3.27327
1 7.62309 5.42013 -1.02977
1 5.42998 7.58484 -1.0767
1 7.64822 7.63891 -3.25428
4 10.899 6.5394 -4.3596
4 8.7192 4.3596 -4.3596
2 10.8397 4.35504 -2.15802
2 8.6893 6.4813 -2.17245
1 9.78699 5.43949 -3.28307
1 11.9801 5.40536 -1.03839
1 9.78596 7.54271 -1.09279
1 11.9714 7.57362 -3.25002
4 2.1798 10.899 -4.3596
4 0 8.7192 -4.3596
2 2.13838 8.7139 -2.24501
2 13.0329 10.9024 -2.22269
1 1.0609 9.78273 -3.3353
1 3.25806 9.78383 -1.13609
1 1.08117 12.0022 -1.13451
1 3.27044 11.9988 -3.29749
4 6.5394 10.899 -4.3596
4 4.3596 8.7192 -4.3596
2 6.57693 8.72948 -2.15233
2 4.36846 10.8773 -2.23553
1 5.489 9.79144 -3.27388
1 7.67976 9.79066 -1.07151
1 5.42974 11.9858 -1.14135
1 7.63382 11.9656 -3.25524
4 10.899 10.899 -4.3596
4 8.7192 8.7192 -4.3596
2 10.8707 8.69857 -2.19153
2 8.75774 10.8197 -2.21851
1 9.8277 9.78036 -3.31237
1 11.9748 9.81188 -1.0435
1 9.81825 11.9538 -1.15028
1 11.9817 11.9842 -3.31585
2 0.0149287 13.014 -0.298991
2 2.21378 2.1181 -0.214405
2 4.42098 0.0531164 -0.277455
2 6.44699 2.06632 -0.309703
2 8.68883 13.0033 -0.256665
2 10.9805 2.14708 -0.25495
2 13.0916 4.29175 -0.196649
2 2.19875 6.53838 -0.268741
2 4.38794 4.3667 -0.205115
2 6.40117 6.39921 -0.197264
2 8.7848 4.33776 -0.191369
2 10.7804 6.3442 -0.219044
2 13.0289 8.64827 -0.180234
2 2.10971 10.8474 -0.279526
2 4.2484 8.6124 -0.246708
2 6.52064 10.8686 -0.272134
2 8.70336 8.61692 -0.20732
2 10.9313 10.9656 -0.202743
162
Atoms. Timestep: 3
4 0 0 -8.7192
4 2.1798 0 -6.5394
4 0 2.1798 -6.5394
4 2.1798 2.1798 -8.7192
3 1.0899 1.0899 -7.6293
3 3.2697 1.0899 -5.4495
3 1.0899 3.2697 -5.4495
3 3.2697 3.2697 -7.6293
4 4.3596 0 -8.7192
4 6.5394 0 -6.5394
4 4.3596 2.1798 -6.5394
4 6.5394 2.1798 -8.7192
3 5.4495 1.0899 -7.6293
3 7.6293 1.0899 -5.4495
3 5.4495 3.2697 -5.4495
3 7.6293 3.2697 -7.6293
4 8.7192 0 -8.7192
4 10.899 0 -6.5394
4 8.7192 2.1798 -6.5394
4 10.899 2.1798 -8.7192
3 9.8091 1.0899 -7.6293
3 11.9889 1.0899 -5.4495
3 9.8091 3.2697 -5.4495
3 11.9889 3.2697 -7.6293
4 0 4.3596 -8.7192
4 2.1798 4.3596 -6.5394
4 0 6.5394 -6.5394
4 2.1798 6.5394 -8.7192
3 1.0899 5.4495 -7.6293
3 3.2697 5.4495 -5.4495
3 1.0899 7.6293 -5.4495
3 3.2697 7.6293 -7.6293
4 4.3596 4.3596 -8.7192
4 6.5394 4.3596 -6.5394
4 4.3596 6.5394 -6.5394
4 6.5394 6.5394 -8.7192
3 5.4495 5.4495 -7.6293
3 7.6293 5.4495 -5.4495
3 5.4495 7.6293 -5.4495
3 7.6293 7.6293 -7.6293
4 8.7192 4.3596 -8.7192
4 10.899 4.3596 -6.5394
4 8.7192 6.5394 -6.5394
4 10.899 6.5394 -8.7192
3 9.8091 5.4495 -7.6293
3 11.9889 5.4495 -5.4495
3 9.8091 7.6293 -5.4495
3 11.9889 7.6293 -7.6293
4 0 8.7192 -8.7192
4 2.1798 8.7192 -6.5394
4 0 10.899 -6.5394
4 2.1798 10.899 -8.7192
3 1.0899 9.8091 -7.6293
3 3.2697 9.8091 -5.4495
3 1.0899 11.9889 -5.4495
3 3.2697 11.9889 -7.6293
4 4.3596 8.7192 -8.7192
4 6.5394 8.7192 -6.5394
4 4.3596 10.899 -6.5394
4 6.5394 10.899 -8.7192
3 5.4495 9.8091 -7.6293
3 7.6293 9.8091 -5.4495
3 5.4495 11.9889 -5.4495
3 7.6293 11.9889 -7.6293
4 8.7192 8.7192 -8.7192
4 10.899 8.7192 -6.5394
4 8.7192 10.899 -6.5394
4 10.899 10.899 -8.7192
3 9.8091 9.8091 -7.6293
3 11.9889 9.8091 -5.4495
3 9.8091 11.9889 -5.4495
3 11.9889 11.9889 -7.6293
2 2.1827 0.00320436 -2.19978
2 13.0929 2.18594 -2.16616
1 1.10265 1.11413 -3.27178
1 3.2709 1.07815 -1.14605
1 1.14631 3.25147 -1.05066
1 3.30331 3.2514 -3.30174
4 2.1798 2.1798 -4.3596
4 0 0 -4.3596
2 6.52794 0.00729978 -2.21584
2 4.33693 2.175 -2.25356
1 5.44351 1.09074 -3.31385
1 7.64324 1.0572 -1.14417
1 5.43998 3.25574 -1.15444
1 7.61054 3.30569 -3.26067
4 6.5394 2.1798 -4.3596
4 4.3596 0 -4.3596
2 10.9307 13.0522 -2.2247
2 8.71693 2.15367 -2.21802
1 9.83777 1.07455 -3.28387
1 12.0272 1.02234 -1.15149
1 9.81316 3.19561 -1.08292
1 11.9733 3.2629 -3.29627
4 10.899 2.1798 -4.3596
4 8.7192 0 -4.3596
2 2.19598 4.33513 -2.20312
2 -0.000289992 6.45047 -2.18767
1 1.08506 5.44082 -3.2885
1 3.26611 5.4313 -1.12612
1 1.05037 7.62302 -1.10367
1 3.27623 7.64604 -3.27514
4 2.1798 6.5394 -4.3596
4 0 4.3596 -4.3596
4 6.5394 6.5394 -4.3596
2 6.51872 4.41413 -2.17833
2 4.33454 6.54528 -2.20638
4 4.3596 4.3596 -4.3596
1 5.43264 5.48421 -3.28249
1 7.62205 5.41899 -1.02986
1 5.43452 7.60707 -1.1075
1 7.64492 7.63504 -3.25255
4 10.899 6.5394 -4.3596
4 8.7192 4.3596 -4.3596
2 10.8459 4.35147 -2.1657
2 8.68991 6.48485 -2.1763
1 9.7857 5.43954 -3.27936
1 11.9763 5.41537 -1.02966
1 9.78578 7.54599 -1.08955
1 11.9758 7.57836 -3.24987
4 2.1798 10.899 -4.3596
4 0 8.7192 -4.3596
2 2.08273 8.65827 -2.28835
2 13.0344 10.8982 -2.22256
1 1.07624 9.7927 -3.32768
1 1.09425 12.001 -1.14862
1 3.25384 11.9842 -3.28137
4 6.5394 10.899 -4.3596
4 4.3596 8.7192 -4.3596
2 6.57458 8.7235 -2.15633
2 4.41305 10.9201 -2.28092
1 5.47488 9.77708 -3.26387
1 7.67713 9.79348 -1.06613
1 5.41757 11.9763 -1.12191
1 7.63568 11.9654 -3.25757
4 10.899 10.899 -4.3596
4 8.7192 8.7192 -4.3596
2 10.8755 8.69388 -2.18689
2 8.7558 10.8255 -2.21789
1 9.82547 9.78226 -3.31455
1 11.9729 9.81193 -1.04576
1 9.81855 11.9561 -1.14824
1 11.9844 11.9843 -3.31518
2 0.0160374 13.0127 -0.295449
2 2.21113 2.12182 -0.21439
2 4.42489 0.047495 -0.277315
2 6.44664 2.06763 -0.30411
2 8.68738 13.0059 -0.261562
2 10.9753 2.15126 -0.2516
2 13.0949 4.28893 -0.19791
2 2.1842 6.54807 -0.278309
2 4.37257 4.3778 -0.241884
2 6.40298 6.40016 -0.198446
2 8.78506 4.33559 -0.193654
2 10.7841 6.34404 -0.222271
2 13.0312 8.64694 -0.183822
2 2.1258 10.8261 -0.259394
2 4.25179 8.5989 -0.21451
2 6.52342 10.867 -0.273215
2 8.70423 8.61688 -0.210178
2 10.9321 10.9636 -0.204569
2 10.9313 10.9656 -0.202743
163
Atoms. Timestep: 4
4 0 0 -8.7192
4 2.1798 0 -6.5394
4 0 2.1798 -6.5394
4 2.1798 2.1798 -8.7192
3 1.0899 1.0899 -7.6293
3 3.2697 1.0899 -5.4495
3 1.0899 3.2697 -5.4495
3 3.2697 3.2697 -7.6293
4 4.3596 0 -8.7192
4 6.5394 0 -6.5394
4 4.3596 2.1798 -6.5394
4 6.5394 2.1798 -8.7192
3 5.4495 1.0899 -7.6293
3 7.6293 1.0899 -5.4495
3 5.4495 3.2697 -5.4495
3 7.6293 3.2697 -7.6293
4 8.7192 0 -8.7192
4 10.899 0 -6.5394
4 8.7192 2.1798 -6.5394
4 10.899 2.1798 -8.7192
3 9.8091 1.0899 -7.6293
3 11.9889 1.0899 -5.4495
3 9.8091 3.2697 -5.4495
3 11.9889 3.2697 -7.6293
4 0 4.3596 -8.7192
4 2.1798 4.3596 -6.5394
4 0 6.5394 -6.5394
4 2.1798 6.5394 -8.7192
3 1.0899 5.4495 -7.6293
3 3.2697 5.4495 -5.4495
3 1.0899 7.6293 -5.4495
3 3.2697 7.6293 -7.6293
4 4.3596 4.3596 -8.7192
4 6.5394 4.3596 -6.5394
4 4.3596 6.5394 -6.5394
4 6.5394 6.5394 -8.7192
3 5.4495 5.4495 -7.6293
3 7.6293 5.4495 -5.4495
3 5.4495 7.6293 -5.4495
3 7.6293 7.6293 -7.6293
4 8.7192 4.3596 -8.7192
4 10.899 4.3596 -6.5394
4 8.7192 6.5394 -6.5394
4 10.899 6.5394 -8.7192
3 9.8091 5.4495 -7.6293
3 11.9889 5.4495 -5.4495
3 9.8091 7.6293 -5.4495
3 11.9889 7.6293 -7.6293
4 0 8.7192 -8.7192
4 2.1798 8.7192 -6.5394
4 0 10.899 -6.5394
4 2.1798 10.899 -8.7192
3 1.0899 9.8091 -7.6293
3 3.2697 9.8091 -5.4495
3 1.0899 11.9889 -5.4495
3 3.2697 11.9889 -7.6293
4 4.3596 8.7192 -8.7192
4 6.5394 8.7192 -6.5394
4 4.3596 10.899 -6.5394
4 6.5394 10.899 -8.7192
3 5.4495 9.8091 -7.6293
3 7.6293 9.8091 -5.4495
3 5.4495 11.9889 -5.4495
3 7.6293 11.9889 -7.6293
4 8.7192 8.7192 -8.7192
4 10.899 8.7192 -6.5394
4 8.7192 10.899 -6.5394
4 10.899 10.899 -8.7192
3 9.8091 9.8091 -7.6293
3 11.9889 9.8091 -5.4495
3 9.8091 11.9889 -5.4495
3 11.9889 11.9889 -7.6293
2 2.1765 0.00985917 -2.19852
2 13.0904 2.18584 -2.16229
1 1.11226 1.11244 -3.27027
1 3.27148 1.0762 -1.14205
1 1.1508 3.25263 -1.05309
1 3.29913 3.26106 -3.29946
4 2.1798 2.1798 -4.3596
4 0 0 -4.3596
2 6.52894 0.00967846 -2.2119
2 4.33608 2.17245 -2.25913
1 5.4416 1.09314 -3.316
1 7.64185 1.06255 -1.14711
1 5.43979 3.25586 -1.14961
1 7.60645 3.31113 -3.25635
4 6.5394 2.1798 -4.3596
4 4.3596 0 -4.3596
2 10.9342 13.0529 -2.22993
2 8.71447 2.14815 -2.22025
1 9.84277 1.07301 -3.27802
1 12.0239 1.02416 -1.14515
1 9.81876 3.19369 -1.08605
1 11.9738 3.27063 -3.29363
4 10.899 2.1798 -4.3596
4 8.7192 0 -4.3596
2 2.19563 4.33133 -2.20429
2 0.00273887 6.44913 -2.18513
1 1.09327 5.43557 -3.29023
1 3.26181 5.43486 -1.1294
1 1.03913 7.60489 -1.11877
1 3.2576 7.6304 -3.28538
4 2.1798 6.5394 -4.3596
4 0 4.3596 -4.3596
4 6.5394 6.5394 -4.3596
2 6.51983 4.41841 -2.1804
2 4.33365 6.54479 -2.20531
4 4.3596 4.3596 -4.3596
1 5.43198 5.48527 -3.28327
1 7.62319 5.42024 -1.02976
1 5.44063 7.59541 -1.09051
1 7.64852 7.63926 -3.25444
4 10.899 6.5394 -4.3596
4 8.7192 4.3596 -4.3596
2 10.8391 4.35536 -2.15733
2 8.68924 6.48098 -2.17211
1 9.78711 5.43949 -3.2834
1 11.9804 5.40447 -1.03917
1 9.78597 7.54242 -1.09308
1 11.971 7.57319 -3.25004
4 2.1798 10.899 -4.3596
4 0 8.7192 -4.3596
2 2.13842 8.71385 -2.24567
2 13.0328 10.9027 -2.2227
1 1.06103 9.78335 -3.33459
1 3.25773 9.78447 -1.13613
1 1.08121 12.0013 -1.13524
1 3.27047 11.9989 -3.29781
4 6.5394 10.899 -4.3596
4 4.3596 8.7192 -4.3596
2 6.57714 8.73001 -2.15197
2 4.36868 10.8771 -2.23554
1 5.48928 9.79143 -3.27388
1 7.68 9.79041 -1.07199
1 5.42971 11.9856 -1.14163
1 7.63366 11.9656 -3.25504
4 10.899 10.899 -4.3596
4 8.7192 8.7192 -4.3596
2 10.8703 8.69899 -2.19194
2 8.75792 10.8192 -2.21856
1 9.8279 9.78019 -3.31218
1 11.975 9.81187 -1.04329
1 9.81823 11.9536 -1.15046
1 11.9815 11.9842 -3.3159
2 0.0148296 13.0141 -0.299308
2 2.21402 2.11777 -0.214407
2 4.42063 0.0536189 -0.277467
2 6.44702 2.0662 -0.310204
2 8.68896 13.003 -0.256227
2 10.981 2.14671 -0.255249
2 13.0913 4.292 -0.196536
2 2.1833 6.54927 -0.280324
2 4.37652 4.37494 -0.238921
2 6.401 6.39912 -0.197158
2 8.78478 4.33795 -0.191165
2 10.7801 6.34421 -0.218755
2 13.0287 8.64838 -0.179913
2 2.10977 10.8472 -0.279463
2 4.2486 8.61203 -0.246505
2 6.5204 10.8688 -0.272038
2 8.70329 8.61693 -0.207064
2 10.9312 10.9658 -0.20258
1 7.70861 0.00291411 2.13439
164
Atoms. Timestep: 5
4 0 0 -8.7192
4 2.1798 0 -6.5394
4 0 2.1798 -6.5394
4 2.1798 2.1798 -8.7192
3 1.0899 1.0899 -7.6293
3 3.2697 1.0899 -5.4495
3 1.0899 3.2697 -5.4495
3 3.2697 3.2697 -7.6293
4 4.3596 0 -8.7192
4 6.5394 0 -6.5394
4 4.3596 2.1798 -6.5394
4 6.5394 2.1798 -8.7192
3 5.4495 1.0899 -7.6293
3 7.6293 1.0899 -5.4495
3 5.4495 3.2697 -5.4495
3 7.6293 3.2697 -7.6293
4 8.7192 0 -8.7192
4 10.899 0 -6.5394
4 8.7192 2.1798 -6.5394
4 10.899 2.1798 -8.7192
3 9.8091 1.0899 -7.6293
3 11.9889 1.0899 -5.4495
3 9.8091 3.2697 -5.4495
3 11.9889 3.2697 -7.6293
4 0 4.3596 -8.7192
4 2.1798 4.3596 -6.5394
4 0 6.5394 -6.5394
4 2.1798 6.5394 -8.7192
3 1.0899 5.4495 -7.6293
3 3.2697 5.4495 -5.4495
3 1.0899 7.6293 -5.4495
3 3.2697 7.6293 -7.6293
4 4.3596 4.3596 -8.7192
4 6.5394 4.3596 -6.5394
4 4.3596 6.5394 -6.5394
4 6.5394 6.5394 -8.7192
3 5.4495 5.4495 -7.6293
3 7.6293 5.4495 -5.4495
3 5.4495 7.6293 -5.4495
3 7.6293 7.6293 -7.6293
4 8.7192 4.3596 -8.7192
4 10.899 4.3596 -6.5394
4 8.7192 6.5394 -6.5394
4 10.899 6.5394 -8.7192
3 9.8091 5.4495 -7.6293
3 11.9889 5.4495 -5.4495
3 9.8091 7.6293 -5.4495
3 11.9889 7.6293 -7.6293
4 0 8.7192 -8.7192
4 2.1798 8.7192 -6.5394
4 0 10.899 -6.5394
4 2.1798 10.899 -8.7192
3 1.0899 9.8091 -7.6293
3 3.2697 9.8091 -5.4495
3 1.0899 11.9889 -5.4495
3 3.2697 11.9889 -7.6293
4 4.3596 8.7192 -8.7192
4 6.5394 8.7192 -6.5394
4 4.3596 10.899 -6.5394
4 6.5394 10.899 -8.7192
3 5.4495 9.8091 -7.6293
3 7.6293 9.8091 -5.4495
3 5.4495 11.9889 -5.4495
3 7.6293 11.9889 -7.6293
4 8.7192 8.7192 -8.7192
4 10.899 8.7192 -6.5394
4 8.7192 10.899 -6.5394
4 10.899 10.899 -8.7192
3 9.8091 9.8091 -7.6293
3 11.9889 9.8091 -5.4495
3 9.8091 11.9889 -5.4495
3 11.9889 11.9889 -7.6293
2 2.17822 0.00683399 -2.20216
2 0.0137478 2.18556 -2.16841
1 1.10721 1.10946 -3.27153
1 3.27806 1.07497 -1.14769
1 1.14449 3.25202 -1.05815
1 3.29092 3.2633 -3.30021
4 2.1798 2.1798 -4.3596
4 0 0 -4.3596
2 6.52953 0.00505086 -2.21526
2 4.34096 2.17183 -2.25307
1 5.44353 1.09175 -3.31165
1 7.63849 1.06127 -1.14334
1 5.43704 3.25675 -1.14742
1 7.61003 3.3049 -3.25967
4 6.5394 2.1798 -4.3596
4 4.3596 0 -4.3596
2 10.9286 13.0529 -2.22868
2 8.71609 2.15206 -2.21726
1 9.83742 1.07469 -3.28108
1 12.0171 1.0348 -1.14245
1 9.81584 3.19833 -1.0869
1 11.976 3.27252 -3.28488
4 10.899 2.1798 -4.3596
4 8.7192 0 -4.3596
2 2.19535 4.33263 -2.20489
2 -0.00323714 6.45799 -2.18357
1 1.09463 5.43111 -3.28725
1 3.26274 5.43745 -1.12835
1 1.04403 7.60494 -1.11983
1 3.25791 7.63062 -3.28572
4 2.1798 6.5394 -4.3596
4 0 4.3596 -4.3596
4 6.5394 6.5394 -4.3596
2 6.52153 4.40991 -2.18162
2 4.33548 6.54463 -2.20612
4 4.3596 4.3596 -4.3596
1 5.4336 5.48188 -3.28217
1 7.62384 5.41787 -1.03269
1 5.43911 7.59766 -1.08985
1 7.64526 7.63443 -3.25519
4 10.899 6.5394 -4.3596
4 8.7192 4.3596 -4.3596
2 10.849 4.35073 -2.16316
2 8.6896 6.48615 -2.17398
1 9.78785 5.43938 -3.28013
1 11.9862 5.39466 -1.04806
1 9.78901 7.54399 -1.09188
1 11.9761 7.57964 -3.25204
4 2.1798 10.899 -4.3596
4 0 8.7192 -4.3596
2 2.13875 8.7121 -2.24104
2 13.0397 10.8986 -2.22124
1 1.0635 9.79153 -3.32346
1 3.25348 9.78576 -1.13734
1 1.09395 11.9843 -1.14448
1 3.26935 11.9955 -3.29466
4 6.5394 10.899 -4.3596
4 4.3596 8.7192 -4.3596
2 6.57344 8.72465 -2.15448
2 4.36596 10.8788 -2.23187
1 5.48471 9.79211 -3.27444
1 7.67708 9.78941 -1.07444
1 5.43522 11.9837 -1.14861
1 7.63489 11.966 -3.25946
4 10.899 10.899 -4.3596
4 8.7192 8.7192 -4.3596
2 10.8743 8.69553 -2.18727
2 8.75427 10.828 -2.21625
1 9.82719 9.78051 -3.30827
1 11.9754 9.80801 -1.04692
1 9.81887 11.9571 -1.14623
1 11.9823 11.9834 -3.31284
2 0.0071505 13.0223 -0.290387
2 2.2124 2.12096 -0.215866
2 4.40551 0.0445133 -0.177467
2 6.44921 2.06856 -0.30802
2 8.68933 13.0049 -0.262024
2 10.9791 2.14548 -0.255653
2 0.0103847 4.29489 -0.194689
2 2.18314 6.54862 -0.27758
2 4.37692 4.3725 -0.244142
2 6.40413 6.4024 -0.198743
2 8.78106 4.33787 -0.193093
2 10.7765 6.35422 -0.217044
2 13.0281 8.65142 -0.186076
2 2.11292 10.8466 -0.279703
2 4.25127 8.61391 -0.248757
2 6.52003 10.871 -0.267626
2 8.70203 8.62029 -0.208459
2 10.9308 10.9631 -0.205861
1 7.70861 0.00291411 2.13439
1 4.17607 12.9452 1.90777
164
Atoms. Timestep: 6
4 0 0 -8.7192
4 2.1798 0 -6.5394
4 0 2.1798 -6.5394
4 2.1798 2.1798 -8.7192
3 1.0899 1.0899 -7.6293
3 3.2697 1.0899 -5.4495
3 1.0899 3.2697 -5.4495
3 3.2697 3.2697 -7.6293
4 4.3596 0 -8.7192
4 6.5394 0 -6.5394
4 4.3596 2.1798 -6.5394
4 6.5394 2.1798 -8.7192
3 5.4495 1.0899 -7.6293
3 7.6293 1.0899 -5.4495
3 5.4495 3.2697 -5.4495
3 7.6293 3.2697 -7.6293
4 8.7192 0 -8.7192
4 10.899 0 -6.5394
4 8.7192 2.1798 -6.5394
4 10.899 2.1798 -8.7192
3 9.8091 1.0899 -7.6293
3 11.9889 1.0899 -5.4495
3 9.8091 3.2697 -5.4495
3 11.9889 3.2697 -7.6293
4 0 4.3596 -8.7192
4 2.1798 4.3596 -6.5394
4 0 6.5394 -6.5394
4 2.1798 6.5394 -8.7192
3 1.0899 5.4495 -7.6293
3 3.2697 5.4495 -5.4495
3 1.0899 7.6293 -5.4495
3 3.2697 7.6293 -7.6293
4 4.3596 4.3596 -8.7192
4 6.5394 4.3596 -6.5394
4 4.3596 6.5394 -6.5394
4 6.5394 6.5394 -8.7192
3 5.4495 5.4495 -7.6293
3 7.6293 5.4495 -5.4495
3 5.4495 7.6293 -5.4495
3 7.6293 7.6293 -7.6293
4 8.7192 4.3596 -8.7192
4 10.899 4.3596 -6.5394
4 8.7192 6.5394 -6.5394
4 10.899 6.5394 -8.7192
3 9.8091 5.4495 -7.6293
3 11.9889 5.4495 -5.4495
3 9.8091 7.6293 -5.4495
3 11.9889 7.6293 -7.6293
4 0 8.7192 -8.7192
4 2.1798 8.7192 -6.5394
4 0 10.899 -6.5394
4 2.1798 10.899 -8.7192
3 1.0899 9.8091 -7.6293
3 3.2697 9.8091 -5.4495
3 1.0899 11.9889 -5.4495
3 3.2697 11.9889 -7.6293
4 4.3596 8.7192 -8.7192
4 6.5394 8.7192 -6.5394
4 4.3596 10.899 -6.5394
4 6.5394 10.899 -8.7192
3 5.4495 9.8091 -7.6293
3 7.6293 9.8091 -5.4495
3 5.4495 11.9889 -5.4495
3 7.6293 11.9889 -7.6293
4 8.7192 8.7192 -8.7192
4 10.899 8.7192 -6.5394
4 8.7192 10.899 -6.5394
4 10.899 10.899 -8.7192
3 9.8091 9.8091 -7.6293
3 11.9889 9.8091 -5.4495
3 9.8091 11.9889 -5.4495
3 11.9889 11.9889 -7.6293
2 2.18193 0.00128975 -2.20857
2 0.0428929 2.21592 -2.20068
1 1.0907 1.09233 -3.2648
1 3.28956 1.07102 -1.13661
1 1.12768 3.24384 -1.05546
1 3.2802 3.26553 -3.29996
4 2.1798 2.1798 -4.3596
4 0 0 -4.3596
2 6.53082 -0.0014684 -2.22039
2 4.34829 2.17141 -2.24467
1 5.4468 1.08975 -3.30534
1 7.63764 1.05781 -1.16784
1 5.43443 3.25678 -1.1444
1 7.61562 3.29489 -3.26476
4 6.5394 2.1798 -4.3596
4 4.3596 0 -4.3596
2 10.8912 13.0259 -2.25283
2 8.7178 2.15743 -2.21248
1 9.83763 1.08845 -3.27639
1 9.81792 3.20002 -1.09963
1 11.9694 3.26603 -3.26548
4 10.899 2.1798 -4.3596
4 8.7192 0 -4.3596
2 2.19419 4.33495 -2.20485
2 13.0681 6.47068 -2.18205
1 1.09577 5.4268 -3.28259
1 3.26456 5.44097 -1.12675
1 1.05083 7.60578 -1.12035
1 3.2583 7.63105 -3.28615
4 2.1798 6.5394 -4.3596
4 0 4.3596 -4.3596
4 6.5394 6.5394 -4.3596
2 6.52465 4.39551 -2.18394
2 4.33867 6.54439 -2.20728
4 4.3596 4.3596 -4.3596
1 5.43657 5.47576 -3.2805
1 7.62398 5.41504 -1.03841
1 5.43733 7.60038 -1.08976
1 7.64011 7.62729 -3.25705
4 10.899 6.5394 -4.3596
4 8.7192 4.3596 -4.3596
2 10.8636 4.34316 -2.1721
2 8.69055 6.4938 -2.17641
1 9.79027 5.43916 -3.27514
1 11.9888 5.38575 -1.0586
1 9.79196 7.54909 -1.09076
1 11.9832 7.5898 -3.25569
4 2.1798 10.899 -4.3596
4 0 8.7192 -4.3596
2 2.13986 8.70969 -2.23363
2 13.0497 10.8918 -2.21874
1 1.06695 9.8018 -3.30811
1 3.24909 9.78568 -1.13756
1 1.09015 11.9819 -1.1652
1 3.2685 11.9907 -3.29135
4 6.5394 10.899 -4.3596
4 4.3596 8.7192 -4.3596
2 6.56674 8.71645 -2.15894
2 4.36108 10.8813 -2.22631
1 5.47719 9.79306 -3.27506
1 7.67135 9.78809 -1.07715
1 5.43815 11.9859 -1.1364
1 7.63678 11.9672 -3.26685
4 10.899 10.899 -4.3596
4 8.7192 8.7192 -4.3596
2 10.8806 8.69043 -2.18036
2 8.74857 10.8419 -2.21241
1 9.82598 9.78142 -3.30082
1 11.9758 9.80301 -1.05389
1 9.83004 11.9683 -1.12942
1 11.996 11.9906 -3.29809
2 -0.0089638 13.0385 -0.270493
2 2.2104 2.12568 -0.221438
2 4.39349 0.036198 -0.149815
2 6.45224 2.0736 -0.303181
2 8.64933 13.0381 -0.162024
2 10.9833 2.14001 -0.245994
2 0.00864181 4.29819 -0.19363
2 2.18291 6.54732 -0.273098
2 4.37643 4.36942 -0.252148
2 6.4101 6.40812 -0.201753
2 8.77447 4.3378 -0.196335
2 10.7773 6.36576 -0.216677
2 13.0288 8.65535 -0.196585
2 2.12038 10.8439 -0.279961
2 4.25468 8.61879 -0.252363
2 6.52065 10.8739 -0.264361
2 8.7005 8.62582 -0.211196
2 10.9305 10.9578 -0.211507
1 8.24724 0.159476 1.83135
1 4.18383 12.9478 1.86421
1 4.17607 12.9452 1.90777
164
Atoms. Timestep: 8
4 0 0 -8.7192
4 2.1798 0 -6.5394
4 0 2.1798 -6.5394
4 2.1798 2.1798 -8.7192
3 1.0899 1.0899 -7.6293
3 3.2697 1.0899 -5.4495
3 1.0899 3.2697 -5.4495
3 3.2697 3.2697 -7.6293
4 4.3596 0 -8.7192
4 6.5394 0 -6.5394
4 4.3596 2.1798 -6.5394
4 6.5394 2.1798 -8.7192
3 5.4495 1.0899 -7.6293
3 7.6293 1.0899 -5.4495
3 5.4495 3.2697 -5.4495
3 7.6293 3.2697 -7.6293
4 8.7192 0 -8.7192
4 10.899 0 -6.5394
4 8.7192 2.1798 -6.5394
4 10.899 2.1798 -8.7192
3 9.8091 1.0899 -7.6293
3 11.9889 1.0899 -5.4495
3 9.8091 3.2697 -5.4495
3 11.9889 3.2697 -7.6293
4 0 4.3596 -8.7192
4 2.1798 4.3596 -6.5394
4 0 6.5394 -6.5394
4 2.1798 6.5394 -8.7192
3 1.0899 5.4495 -7.6293
3 3.2697 5.4495 -5.4495
3 1.0899 7.6293 -5.4495
3 3.2697 7.6293 -7.6293
4 4.3596 4.3596 -8.7192
4 6.5394 4.3596 -6.5394
4 4.3596 6.5394 -6.5394
4 6.5394 6.5394 -8.7192
3 5.4495 5.4495 -7.6293
3 7.6293 5.4495 -5.4495
3 5.4495 7.6293 -5.4495
3 7.6293 7.6293 -7.6293
4 8.7192 4.3596 -8.7192
4 10.899 4.3596 -6.5394
4 8.7192 6.5394 -6.5394
4 10.899 6.5394 -8.7192
3 9.8091 5.4495 -7.6293
3 11.9889 5.4495 -5.4495
3 9.8091 7.6293 -5.4495
3 11.9889 7.6293 -7.6293
4 0 8.7192 -8.7192
4 2.1798 8.7192 -6.5394
4 0 10.899 -6.5394
4 2.1798 10.899 -8.7192
3 1.0899 9.8091 -7.6293
3 3.2697 9.8091 -5.4495
3 1.0899 11.9889 -5.4495
3 3.2697 11.9889 -7.6293
4 4.3596 8.7192 -8.7192
4 6.5394 8.7192 -6.5394
4 4.3596 10.899 -6.5394
4 6.5394 10.899 -8.7192
3 5.4495 9.8091 -7.6293
3 7.6293 9.8091 -5.4495
3 5.4495 11.9889 -5.4495
3 7.6293 11.9889 -7.6293
4 8.7192 8.7192 -8.7192
4 10.899 8.7192 -6.5394
4 8.7192 10.899 -6.5394
4 10.899 10.899 -8.7192
3 9.8091 9.8091 -7.6293
3 11.9889 9.8091 -5.4495
3 9.8091 11.9889 -5.4495
3 11.9889 11.9889 -7.6293
2 2.28077 -0.0984755 -2.30939
2 0.0248364 2.191 -2.18003
1 1.10209 1.09194 -3.28052
1 3.25782 1.01783 -1.13759
1 1.13101 3.25161 -1.07177
1 3.27615 3.26717 -3.29705
4 2.1798 2.1798 -4.3596
4 0 0 -4.3596
2 6.53239 -0.00733144 -2.2254
2 4.34545 2.16449 -2.2388
1 5.44683 1.08663 -3.29523
1 7.6363 1.05823 -1.18159
1 5.34147 3.1582 -1.02293
1 7.68828 3.22282 -3.38941
4 6.5394 2.1798 -4.3596
4 4.3596 0 -4.3596
2 13.0638 10.8785 -2.21659
2 8.71845 2.16109 -2.21111
1 9.76467 1.13007 -3.38118
1 12.1559 1.18762 -1.0085
1 9.80708 3.21505 -1.10402
1 11.9748 3.2795 -3.27348
4 10.899 2.1798 -4.3596
4 8.7192 0 -4.3596
2 2.19276 4.33671 -2.20399
2 9.8016 5.4402 -3.35906
1 1.09565 5.42587 -3.27965
1 3.26842 5.44178 -1.12834
1 1.05486 7.60678 -1.12016
1 3.21573 7.67378 -3.28423
4 2.1798 6.5394 -4.3596
4 0 4.3596 -4.3596
4 6.5394 6.5394 -4.3596
2 13.0639 6.47944 -2.18266
2 4.33351 6.55163 -2.20857
4 4.3596 4.3596 -4.3596
1 6.52544 4.40015 -2.18688
1 7.72203 5.49236 -0.904325
1 5.43794 7.59937 -1.0932
1 7.65667 7.62841 -3.24645
4 10.899 6.5394 -4.3596
4 8.7192 4.3596 -4.3596
2 10.7755 4.43977 -2.28219
2 8.79597 6.41246 -2.27918
1 5.37956 5.51804 -3.33436
1 11.9827 5.38811 -1.07065
1 9.83463 7.6063 -1.10839
1 11.9702 7.60507 -3.2691
4 2.1798 10.899 -4.3596
4 0 8.7192 -4.3596
2 2.14094 8.70808 -2.22822
2 3.26857 11.9838 -3.38211
1 1.1132 9.76783 -3.29225
1 3.24167 9.79054 -1.14428
1 1.09936 11.9679 -1.16483
1 7.64987 11.9576 -3.28749
4 6.5394 10.899 -4.3596
4 4.3596 8.7192 -4.3596
2 6.56158 8.71122 -2.16199
2 4.26055 10.9823 -2.31893
1 5.46551 9.80091 -3.2804
1 7.62935 9.72754 -1.09008
1 5.43216 11.9937 -1.13413
1 10.9033 13.058 -2.21699
4 10.899 10.899 -4.3596
4 8.7192 8.7192 -4.3596
2 10.9276 8.63993 -2.12441
2 8.69456 10.8836 -2.16632
1 11.9647 9.81724 -1.07325
1 9.73718 11.8691 -1.00398
1 12.0362 11.923 -3.33281
2 0.0125394 13.028 -0.266506
2 2.20892 2.12764 -0.226987
2 4.38661 0.0286202 -0.129629
2 6.45855 2.06606 -0.284634
2 8.6257 13.0547 -0.127019
2 10.9641 2.15966 -0.239957
2 0.00656328 4.30019 -0.19519
2 2.18277 6.5462 -0.269886
2 4.36753 4.36767 -0.24743
2 6.41555 6.41919 -0.195213
2 8.77873 4.33397 -0.184371
2 10.7799 6.37324 -0.217558
2 13.0289 8.65957 -0.205207
2 2.12473 10.8425 -0.279497
2 4.25704 8.62459 -0.255665
2 6.52147 10.874 -0.263328
2 8.69978 8.62903 -0.214829
2 10.9322 10.9442 -0.20665
1 8.26742 0.141967 1.80017
1 4.18977 12.9499 1.82878
1 4.17607 12.9452 1.90777
165
Atoms. Timestep: 11
4 0 0 -8.7192
4 2.1798 0 -6.5394
4 0 2.1798 -6.5394
4 2.1798 2.1798 -8.7192
3 1.0899 1.0899 -7.6293
3 3.2697 1.0899 -5.4495
3 1.0899 3.2697 -5.4495
3 3.2697 3.2697 -7.6293
4 4.3596 0 -8.7192
4 6.5394 0 -6.5394
4 4.3596 2.1798 -6.5394
4 6.5394 2.1798 -8.7192
3 5.4495 1.0899 -7.6293
3 7.6293 1.0899 -5.4495
3 5.4495 3.2697 -5.4495
3 7.6293 3.2697 -7.6293
4 8.7192 0 -8.7192
4 10.899 0 -6.5394
4 8.7192 2.1798 -6.5394
4 10.899 2.1798 -8.7192
3 9.8091 1.0899 -7.6293
3 11.9889 1.0899 -5.4495
3 9.8091 3.2697 -5.4495
3 11.9889 3.2697 -7.6293
4 0 4.3596 -8.7192
4 2.1798 4.3596 -6.5394
4 0 6.5394 -6.5394
4 2.1798 6.5394 -8.7192
3 1.0899 5.4495 -7.6293
3 3.2697 5.4495 -5.4495
3 1.0899 7.6293 -5.4495
3 3.2697 7.6293 -7.6293
4 4.3596 4.3596 -8.7192
4 6.5394 4.3596 -6.5394
4 4.3596 6.5394 -6.5394
4 6.5394 6.5394 -8.7192
3 5.4495 5.4495 -7.6293
3 7.6293 5.4495 -5.4495
3 5.4495 7.6293 -5.4495
3 7.6293 7.6293 -7.6293
4 8.7192 4.3596 -8.7192
4 10.899 4.3596 -6.5394
4 8.7192 6.5394 -6.5394
4 10.899 6.5394 -8.7192
3 9.8091 5.4495 -7.6293
3 11.9889 5.4495 -5.4495
3 9.8091 7.6293 -5.4495
3 11.9889 7.6293 -7.6293
4 0 8.7192 -8.7192
4 2.1798 8.7192 -6.5394
4 0 10.899 -6.5394
4 2.1798 10.899 -8.7192
3 1.0899 9.8091 -7.6293
3 3.2697 9.8091 -5.4495
3 1.0899 11.9889 -5.4495
3 3.2697 11.9889 -7.6293
4 4.3596 8.7192 -8.7192
4 6.5394 8.7192 -6.5394
4 4.3596 10.899 -6.5394
4 6.5394 10.899 -8.7192