579
Atoms. Timestep: 0
3 1.54135 2.6697 -13.2143
4 3.08271 8.88179e-16 -15.1021
3 3.08271 8.88179e-16 -13.2143
4 0 0 -15.1021
4 0 1.7798 -12.5851
3 0 0 -13.2143
4 3.08271 1.7798 -12.5851
3 7.70676 2.6697 -13.2143
3 4.62405 2.6697 -13.2143
4 6.1654 0 -15.1021
4 6.1654 1.7798 -12.5851
3 6.1654 0 -13.2143
3 10.7895 2.6697 -13.2143
3 9.24811 0 -13.2143
4 12.3308 0 -15.1021
4 12.3308 1.7798 -12.5851
3 12.3308 0 -13.2143
4 9.24811 1.7798 -12.5851
3 16.9549 2.6697 -13.2143
4 13.8722 2.6697 -15.1021
3 13.8722 2.6697 -13.2143
4 15.4135 8.88179e-16 -15.1021
3 15.4135 0 -13.2143
4 15.4135 1.7798 -12.5851
3 1.54135 8.0091 -13.2143
3 0 5.3394 -13.2143
4 1.54135 4.44949 -12.5851
4 3.08271 7.11919 -12.5851
3 3.08271 5.3394 -13.2143
4 0 7.11919 -12.5851
3 7.70676 8.0091 -13.2143
3 4.62405 8.0091 -13.2143
3 6.1654 5.3394 -13.2143
4 7.70676 4.44949 -12.5851
4 4.62405 4.44949 -12.5851
4 6.1654 7.11919 -12.5851
3 10.7895 8.0091 -13.2143
3 12.3308 5.3394 -13.2143
4 10.7895 4.44949 -12.5851
4 9.24811 7.11919 -12.5851
3 9.24811 5.3394 -13.2143
4 12.3308 7.11919 -12.5851
3 16.9549 8.0091 -13.2143
3 13.8722 8.0091 -13.2143
4 16.9549 4.44949 -12.5851
4 13.8722 4.44949 -12.5851
4 15.4135 7.11919 -12.5851
3 15.4135 5.3394 -13.2143
4 3.08271 10.6788 -15.1021
3 3.08271 10.6788 -13.2143
4 0 10.6788 -15.1021
4 1.54135 9.78889 -12.5851
4 0 12.4586 -12.5851
3 0 10.6788 -13.2143
4 3.08271 12.4586 -12.5851
4 6.1654 10.6788 -15.1021
4 7.70676 9.78889 -12.5851
4 4.62405 9.78889 -12.5851
4 6.1654 12.4586 -12.5851
3 6.1654 10.6788 -13.2143
4 9.24811 10.6788 -15.1021
3 9.24811 10.6788 -13.2143
4 10.7895 9.78889 -12.5851
4 12.3308 12.4586 -12.5851
3 12.3308 10.6788 -13.2143
4 9.24811 12.4586 -12.5851
3 15.4135 10.6788 -13.2143
4 16.9549 9.78889 -12.5851
4 13.8722 9.78889 -12.5851
4 15.4135 12.4586 -12.5851
4 1.54135 13.3485 -15.1021
3 1.54135 13.3485 -13.2143
3 0 16.0182 -13.2143
4 1.54135 15.1283 -12.5851
3 3.08271 16.0182 -13.2143
4 7.70676 13.3485 -15.1021
3 7.70676 13.3485 -13.2143
3 4.62405 13.3485 -13.2143
3 6.1654 16.0182 -13.2143
4 7.70676 15.1283 -12.5851
4 4.62405 15.1283 -12.5851
3 10.7895 13.3485 -13.2143
3 12.3308 16.0182 -13.2143
4 10.7895 15.1283 -12.5851
3 9.24811 16.0182 -13.2143
3 16.9549 13.3485 -13.2143
3 13.8722 13.3485 -13.2143
4 16.9549 15.1283 -12.5851
4 13.8722 15.1283 -12.5851
3 15.4135 16.0182 -13.2143
3 1.54135 18.6879 -13.2143
4 1.54135 20.4677 -12.5851
4 3.08271 17.798 -12.5851
4 0 17.798 -12.5851
3 7.70676 18.6879 -13.2143
3 4.62405 18.6879 -13.2143
4 7.70676 20.4677 -12.5851
4 4.62405 20.4677 -12.5851
4 6.1654 17.798 -12.5851
3 10.7895 18.6879 -13.2143
4 10.7895 20.4677 -12.5851
4 9.24811 17.798 -12.5851
4 12.3308 17.798 -12.5851
3 16.9549 18.6879 -13.2143
3 13.8722 18.6879 -13.2143
4 16.9549 20.4677 -12.5851
4 13.8722 20.4677 -12.5851
4 15.4135 17.798 -12.5851
4 0 0 -7.55105
4 3.08271 0 -7.55105
3 0 3.55961 -8.18029
4 1.54135 2.6697 -7.55105
4 0 3.55961 -10.0681
3 0 1.7798 -10.6973
4 1.54135 0.8899 -10.0681
4 3.08271 3.55961 -10.0681
3 3.08271 1.7798 -10.6973
3 1.54135 0.8899 -8.18029
3 3.08271 3.55961 -8.18029
4 6.1654 0 -7.55105
3 6.1654 3.55961 -8.18029
4 4.62405 2.6697 -7.55105
4 7.70676 2.6697 -7.55105
3 6.1654 1.7798 -10.6973
4 7.70676 0.8899 -10.0681
3 7.70676 0.8899 -8.18029
4 4.62405 0.8899 -10.0681
3 4.62405 0.8899 -8.18029
4 6.1654 3.55961 -10.0681
4 12.3308 4.44088e-16 -7.55105
4 9.24811 4.44088e-16 -7.55105
3 12.3308 1.7798 -10.6973
4 10.7895 0.8899 -10.0681
4 9.24811 3.55961 -10.0681
3 9.24811 1.7798 -10.6973
3 10.7895 0.8899 -8.18029
3 9.24811 3.55961 -8.18029
4 12.3308 3.55961 -10.0681
4 10.7895 2.6697 -7.55105
3 12.3308 3.55961 -8.18029
4 15.4135 0 -7.55105
4 16.9549 0.8899 -10.0681
4 13.8722 0.8899 -10.0681
4 15.4135 3.55961 -10.0681
3 15.4135 1.7798 -10.6973
3 16.9549 0.8899 -8.18029
3 13.8722 0.8899 -8.18029
3 15.4135 3.55961 -8.18029
4 16.9549 2.6697 -7.55105
4 13.8722 2.6697 -7.55105
4 3.08271 5.3394 -7.55105
4 0 5.3394 -7.55105
3 1.54135 4.44949 -10.6973
3 3.08271 7.11919 -10.6973
4 1.54135 6.2293 -10.0681
3 0 7.11919 -10.6973
3 1.54135 6.2293 -8.18029
4 1.54135 8.0091 -7.55105
4 6.1654 5.3394 -7.55105
3 7.70676 4.44949 -10.6973
3 4.62405 4.44949 -10.6973
4 7.70676 6.2293 -10.0681
4 4.62405 6.2293 -10.0681
3 6.1654 7.11919 -10.6973
3 7.70676 6.2293 -8.18029
3 4.62405 6.2293 -8.18029
4 7.70676 8.0091 -7.55105
4 4.62405 8.0091 -7.55105
4 9.24811 5.3394 -7.55105
3 10.7895 4.44949 -10.6973
3 9.24811 7.11919 -10.6973
4 10.7895 6.2293 -10.0681
3 12.3308 7.11919 -10.6973
3 10.7895 6.2293 -8.18029
4 10.7895 8.0091 -7.55105
4 12.3308 5.3394 -7.55105
3 16.9549 4.44949 -10.6973
3 13.8722 4.44949 -10.6973
3 15.4135 7.11919 -10.6973
4 16.9549 6.2293 -10.0681
3 16.9549 6.2293 -8.18029
4 13.8722 6.2293 -10.0681
3 13.8722 6.2293 -8.18029
4 16.9549 8.0091 -7.55105
4 13.8722 8.0091 -7.55105
4 15.4135 5.3394 -7.55105
3 1.54135 9.78889 -10.6973
3 0 12.4586 -10.6973
4 1.54135 11.5687 -10.0681
3 3.08271 12.4586 -10.6973
3 1.54135 11.5687 -8.18029
4 0 8.899 -10.0681
3 0 8.899 -8.18029
4 3.08271 8.899 -10.0681
4 3.08271 10.6788 -7.55105
3 3.08271 8.899 -8.18029
4 0 10.6788 -7.55105
3 7.70676 9.78889 -10.6973
3 4.62405 9.78889 -10.6973
3 6.1654 12.4586 -10.6973
4 7.70676 11.5687 -10.0681
3 7.70676 11.5687 -8.18029
4 4.62405 11.5687 -10.0681
3 4.62405 11.5687 -8.18029
4 6.1654 8.899 -10.0681
3 6.1654 8.899 -8.18029
4 6.1654 10.6788 -7.55105
3 10.7895 9.78889 -10.6973
3 12.3308 12.4586 -10.6973
4 10.7895 11.5687 -10.0681
3 9.24811 12.4586 -10.6973
3 10.7895 11.5687 -8.18029
4 12.3308 8.899 -10.0681
3 12.3308 8.899 -8.18029
4 9.24811 8.899 -10.0681
4 9.24811 10.6788 -7.55105
3 9.24811 8.899 -8.18029
4 12.3308 10.6788 -7.55105
3 16.9549 9.78889 -10.6973
3 13.8722 9.78889 -10.6973
4 16.9549 11.5687 -10.0681
4 13.8722 11.5687 -10.0681
3 15.4135 12.4586 -10.6973
3 16.9549 11.5687 -8.18029
3 13.8722 11.5687 -8.18029
4 15.4135 8.899 -10.0681
4 15.4135 10.6788 -7.55105
3 15.4135 8.899 -8.18029
3 1.54135 15.1283 -10.6973
4 1.54135 16.9081 -10.0681
3 1.54135 16.9081 -8.18029
4 3.08271 14.2384 -10.0681
3 3.08271 14.2384 -8.18029
4 0 14.2384 -10.0681
4 1.54135 13.3485 -7.55105
4 0 16.0182 -7.55105
3 0 14.2384 -8.18029
4 3.08271 16.0182 -7.55105
2 6.17287 16.0026 -7.612
3 7.70676 15.1283 -10.6973
3 4.62405 15.1283 -10.6973
4 7.70676 16.9081 -10.0681
4 4.62405 16.9081 -10.0681
3 7.70676 16.9081 -8.18029
3 4.62405 16.9081 -8.18029
4 6.1654 14.2384 -10.0681
4 7.70676 13.3485 -7.55105
4 4.62405 13.3485 -7.55105
3 6.1654 14.2384 -8.18029
3 10.7895 15.1283 -10.6973
4 10.7895 16.9081 -10.0681
3 10.7895 16.9081 -8.18029
4 9.24811 14.2384 -10.0681
3 9.24811 14.2384 -8.18029
4 12.3308 14.2384 -10.0681
4 10.7895 13.3485 -7.55105
4 12.3308 16.0182 -7.55105
3 12.3308 14.2384 -8.18029
4 9.24811 16.0182 -7.55105
2 15.394 16.046 -7.62807
3 16.9549 15.1283 -10.6973
3 13.8722 15.1283 -10.6973
4 16.9549 16.9081 -10.0681
3 16.9549 16.9081 -8.18029
4 13.8722 16.9081 -10.0681
3 13.8722 16.9081 -8.18029
4 15.4135 14.2384 -10.0681
3 15.4135 14.2384 -8.18029
4 16.9549 13.3485 -7.55105
4 13.8722 13.3485 -7.55105
3 1.54135 20.4677 -10.6973
3 3.08271 17.798 -10.6973
4 0 19.5778 -10.0681
3 0 17.798 -10.6973
3 0 19.5778 -8.18029
4 3.08271 19.5778 -10.0681
4 1.54135 18.6879 -7.55105
3 3.08271 19.5778 -8.18029
3 7.70676 20.4677 -10.6973
3 4.62405 20.4677 -10.6973
4 6.1654 19.5778 -10.0681
3 6.1654 17.798 -10.6973
3 6.1654 19.5778 -8.18029
4 7.70676 18.6879 -7.55105
4 4.62405 18.6879 -7.55105
3 10.7895 20.4677 -10.6973
3 9.24811 17.798 -10.6973
4 12.3308 19.5778 -10.0681
3 12.3308 17.798 -10.6973
3 12.3308 19.5778 -8.18029
4 9.24811 19.5778 -10.0681
4 10.7895 18.6879 -7.55105
3 9.24811 19.5778 -8.18029
2 16.9833 18.685 -7.5631
3 16.9549 20.4677 -10.6973
3 13.8722 20.4677 -10.6973
3 15.4135 17.798 -10.6973
4 15.4135 19.5778 -10.0681
4 13.8722 18.6879 -7.55105
3 15.4135 19.5778 -8.18029
1 1.52893 2.67959 -5.66027
1 3.11271 0.0819598 -5.69784
2 18.4516 1.86243 -5.06999
1 0.000881265 0.0218524 -5.65607
1 0.00695952 1.82376 -3.19095
2 3.02663 1.79252 -5.07714
2 1.43896 0.848255 -2.55422
2 3.05576 3.52509 -2.58288
1 3.03018 1.71817 -3.1606
2 18.4142 3.58989 -2.53138
1 7.65257 2.69825 -5.64208
1 4.53536 2.7008 -5.68851
2 6.12129 1.85222 -4.96856
1 6.17685 0.0583385 -5.66673
1 6.17086 1.86568 -3.14477
2 7.75045 1.03798 -2.45219
2 4.60892 0.905237 -2.53184
2 6.20086 3.67054 -2.53939
1 10.7066 2.73411 -5.66477
1 9.27583 21.348 -5.69766
2 12.2957 1.8015 -5.10433
1 12.2739 0.0180846 -5.68195
1 12.3405 1.795 -3.1709
2 9.12392 1.72515 -5.08533
2 10.7594 0.886195 -2.54818
2 9.24787 3.61687 -2.56992
1 9.25049 1.84028 -3.17911
2 12.3386 3.5504 -2.54241
1 16.9537 2.65684 -5.71847
1 13.8532 2.63764 -5.73608
1 15.4386 21.308 -5.6496
2 15.4333 1.72566 -5.11508
2 16.8973 1.01785 -2.53933
2 13.8973 0.921892 -2.58252
2 15.2639 3.50794 -2.52268
1 15.3719 1.83646 -3.24976
1 1.47948 8.02155 -5.6834
1 18.4888 5.34529 -5.6767
2 1.5203 4.43441 -5.03123
2 3.00619 7.20257 -5.04733
1 3.08987 5.36607 -5.61723
1 1.48158 4.45071 -3.19077
1 3.06505 7.15855 -3.20521
2 18.461 7.12376 -5.0663
2 1.51532 6.16213 -2.57225
1 0.00777444 7.06137 -3.22795
1 7.68634 8.05403 -5.65383
1 4.61634 8.04936 -5.70874
1 6.1885 5.37126 -5.71098
2 7.69193 4.44883 -5.01257
1 7.76186 4.47232 -3.18098
2 4.63334 4.52206 -5.08146
1 4.58207 4.40052 -3.19201
2 6.11982 7.15776 -5.0724
2 7.72237 6.19588 -2.60665
2 4.51502 6.19058 -2.57155
1 6.07682 7.08784 -3.15549
1 10.7258 8.03936 -5.64387
1 12.2797 5.29816 -5.64362
2 10.6751 4.50998 -5.06869
2 9.27326 7.08124 -4.98871
1 9.20557 5.33972 -5.66057
1 10.7932 4.49118 -3.08382
1 9.25451 7.13461 -3.11417
2 12.3447 7.05091 -4.97602
2 10.7985 6.24771 -2.52302
1 12.3137 7.1194 -3.09218
1 16.9216 8.05352 -5.71847
1 13.8595 7.97247 -5.67951
2 17 4.40455 -4.99834
2 13.8896 4.4481 -5.08367
2 15.4441 7.11097 -5.14374
1 15.4187 5.36725 -5.68697
1 16.8751 4.42288 -3.11448
1 13.8182 4.4346 -3.19711
1 15.4281 7.18123 -3.24402
2 16.8779 6.26971 -2.53295
2 13.9337 6.31031 -2.52033
1 3.01671 10.6397 -5.63199
2 1.48863 9.78338 -5.15876
2 0.00896212 12.5456 -4.97617
1 18.4458 10.6766 -5.71074
1 1.523 9.74361 -3.16398
1 0.00214839 12.4807 -3.11756
2 3.04881 12.4835 -5.10412
2 1.50192 11.5282 -2.51459
1 3.05739 12.4245 -3.10795
2 18.4301 8.82218 -2.52214
2 3.12821 8.90586 -2.6059
2 7.69936 9.77659 -5.02842
2 4.65541 9.78507 -5.03516
2 6.15082 12.4167 -5.01314
1 6.11178 10.6586 -5.70056
1 7.62124 9.81343 -3.17485
1 4.62463 9.81356 -3.18056
1 6.1179 12.4919 -3.16981
2 7.65235 11.5487 -2.48324
2 4.60637 11.5875 -2.51024
2 6.10789 8.89001 -2.56174
1 9.20592 10.6988 -5.69878
2 10.7252 9.84115 -5.04733
2 12.3037 12.4795 -5.06431
1 12.2763 10.7256 -5.64951
1 10.7463 9.7862 -3.13779
1 12.3456 12.5051 -3.20772
2 9.17544 12.5322 -5.0148
2 10.739 11.5605 -2.59792
1 9.17828 12.4658 -3.15054
2 12.2762 8.93582 -2.50927
2 9.247 8.864 -2.4302
1 15.4233 10.6618 -5.69784
2 16.9114 9.82233 -5.04537
1 16.9564 9.84102 -3.16322
2 13.7864 9.81347 -5.03157
1 13.773 9.87274 -3.14779
2 15.3865 12.4517 -5.0557
2 16.8456 11.5848 -2.41712
2 13.7798 11.6631 -2.46385
1 15.3676 12.4364 -3.12994
2 15.4437 9.04928 -2.44651
1 1.50078 13.3986 -5.67374
1 18.4486 16.0654 -5.71391
2 1.49065 15.206 -4.95757
1 3.07594 15.9702 -5.65084
1 1.55392 15.1327 -3.09345
2 1.5148 16.9456 -2.49272
2 3.13113 14.2553 -2.5978
2 18.486 14.2151 -2.52516
1 7.69988 13.3613 -5.65175
1 4.6415 13.3239 -5.64051
1 6.2047 16.0285 -5.68959
2 7.70902 15.1271 -4.99312
1 7.68398 15.1677 -3.09342
2 4.70612 15.1606 -5.03084
1 4.63976 15.1445 -3.17355
2 7.7339 16.9478 -2.47696
2 4.73215 16.9538 -2.55117
2 6.18891 14.2809 -2.59095
1 10.7653 13.3822 -5.60481
1 12.374 16.0055 -5.70491
2 10.7953 15.1219 -5.05935
1 9.24406 16.008 -5.60294
1 10.8017 15.0954 -3.18271
2 10.7946 16.9323 -2.56219
2 9.24389 14.2122 -2.57899
2 12.3622 14.2302 -2.51245
1 16.9483 13.3176 -5.67253
1 13.8839 13.3726 -5.75124
2 16.9134 15.1152 -5.05262
2 13.7717 15.0533 -5.12568
1 15.351 15.9927 -5.70307
1 16.9397 15.1497 -3.16573
1 13.8436 15.0905 -3.23143
2 16.9314 16.9148 -2.5434
2 13.8744 16.8478 -2.6361
2 15.3709 14.2059 -2.58318
1 1.50957 18.7237 -5.62704
2 1.63337 20.4991 -5.07195
1 1.51692 20.4836 -3.1023
2 3.07988 17.7233 -5.01529
1 3.0843 17.8153 -3.11846
2 18.4521 17.7733 -5.01906
2 18.3938 19.5836 -2.50296
1 18.4743 17.8417 -3.16914
2 3.11702 19.5677 -2.45321
1 7.75478 18.7527 -5.71355
1 4.61934 18.7752 -5.72116
2 7.77888 20.5831 -5.00157
2 4.60922 20.5771 -5.04274
1 7.7442 20.5121 -3.18905
1 4.65132 20.5262 -3.14652
2 6.22498 17.8443 -5.14731
2 6.18935 19.605 -2.64676
1 6.20524 17.8521 -3.29196
1 10.8145 18.6592 -5.63903
2 10.8409 20.45 -5.07766
1 10.8082 20.4938 -3.14142
2 9.24274 17.7888 -5.01604
1 9.24221 17.9283 -3.18171
2 12.3482 17.7945 -5.02713
2 12.3629 19.642 -2.44011
1 12.3607 17.7826 -3.12532
2 9.19795 19.728 -2.51136
1 16.9374 18.7208 -5.68322
1 13.7994 18.7451 -5.67766
2 16.9792 20.5036 -5.03057
1 16.8799 20.5778 -3.13396
2 13.8671 20.4981 -4.97756
1 13.882 20.4883 -3.13504
2 15.2998 17.7742 -5.1326
1 15.378 17.7312 -3.21699
2 15.4843 19.5827 -2.56458
1 1.50413 0.922706 -0.667905
1 2.9987 3.5145 -0.678507
2 1.45364 2.6574 -0.371663
1 18.3 3.43086 -0.640601
2 3.11245 0.0891421 -0.391718
2 18.4479 0.105278 -0.511266
1 7.74081 1.19678 -0.506101
1 4.65082 0.973124 -0.642926
2 4.58209 2.78832 -0.319742
1 6.05923 3.97529 -0.629908
2 6.22867 0.11725 -0.421167
1 10.8997 0.94407 -0.659207
1 9.23522 3.47403 -0.590492
2 10.9098 2.65206 -0.44083
1 12.4838 3.66603 -0.629244
2 9.2709 0.0937829 -0.154736
2 12.4283 0.0767498 -0.354265
1 16.9553 1.19333 -0.56799
1 13.8919 0.905481 -0.683672
1 15.0453 3.20317 -0.555304
2 15.4298 0.0729789 -0.499728
1 1.39457 6.11615 -0.610004
2 1.39834 7.915 -0.307962
2 18.2999 5.26736 -0.347137
2 2.9674 5.28652 -0.202338
1 7.63056 6.0986 -0.619941
1 4.56352 6.09358 -0.527124
2 7.66383 7.95199 -0.355564
2 4.61383 7.92676 -0.367736
1 10.8323 6.30013 -0.638124
2 10.8728 8.07229 -0.188806
2 12.4619 5.38122 -0.429624
2 9.34216 5.32191 -0.283164
1 16.7717 6.42564 -0.596261
1 14.1433 6.33451 -0.586807
2 14.0461 8.13229 -0.272804
1 1.51909 11.5227 -0.658995
1 18.1749 8.74884 -0.512535
2 3.01168 10.5753 -0.413465
1 3.05291 8.76272 -0.669808
2 18.4321 10.6585 -0.323729
1 7.6974 11.554 -0.601607
1 4.60339 11.5599 -0.632838
1 6.13053 8.84644 -0.601335
2 6.14346 10.6374 -0.476864
1 10.873 11.6053 -0.725988
1 12.4803 9.02608 -0.504168
2 9.28259 10.7194 -0.385587
1 9.24295 8.88879 -0.517217
1 16.8265 11.4675 -0.524345
1 13.3093 11.55 -0.557086
1 15.6327 9.17699 -0.531292
1 1.54299 16.9685 -0.547119
1 3.13831 14.2515 -0.730609
2 1.52104 13.3244 -0.440951
2 18.4708 16.0702 -0.210342
1 18.3984 14.2702 -0.575299
2 3.15505 16.0091 -0.486016
1 7.73567 16.921 -0.623566
1 4.72244 16.9466 -0.723239
2 7.70536 13.4229 -0.32542
2 4.63264 13.3798 -0.393289
2 6.18456 16.0157 -0.268757
1 6.16002 14.2582 -0.691676
1 10.7518 16.8651 -0.579679
1 9.26986 14.2904 -0.66857
2 10.8279 13.3697 -0.379032
2 12.365 16.0319 -0.322339
1 12.5564 14.1882 -0.537091
2 9.23745 15.9826 -0.318231
1 16.9178 16.8601 -0.676423
1 13.8898 16.8978 -0.674097
1 15.2457 14.2253 -0.66709
2 16.757 13.3105 -0.318564
2 15.3919 15.9781 -0.425819
1 18.4547 19.6359 -0.673644
2 1.49126 18.8138 -0.346925
1 3.14687 19.6763 -0.58868
1 6.28788 19.6376 -0.672859
2 7.77485 18.7126 -0.328138
2 4.6746 18.7161 -0.409931
1 12.4308 19.6124 -0.5592
2 10.7736 18.7453 -0.295427
1 9.26422 19.6745 -0.517337
2 16.9686 18.6474 -0.341187
2 13.9802 18.6589 -0.32098
1 15.441 19.5262 -0.706808
577
Atoms. Timestep: 100
3 1.54135 2.6697 -13.2143
4 3.08271 8.88179e-16 -15.1021
3 3.08271 8.88179e-16 -13.2143
4 0 0 -15.1021
4 0 1.7798 -12.5851
3 0 0 -13.2143
4 3.08271 1.7798 -12.5851
3 7.70676 2.6697 -13.2143
3 4.62405 2.6697 -13.2143
4 6.1654 0 -15.1021
4 6.1654 1.7798 -12.5851
3 6.1654 0 -13.2143
3 10.7895 2.6697 -13.2143
3 9.24811 0 -13.2143
4 12.3308 0 -15.1021
4 12.3308 1.7798 -12.5851
3 12.3308 0 -13.2143
4 9.24811 1.7798 -12.5851
3 16.9549 2.6697 -13.2143
4 13.8722 2.6697 -15.1021
3 13.8722 2.6697 -13.2143
4 15.4135 8.88179e-16 -15.1021
3 15.4135 0 -13.2143
4 15.4135 1.7798 -12.5851
3 1.54135 8.0091 -13.2143
3 0 5.3394 -13.2143
4 1.54135 4.44949 -12.5851
4 3.08271 7.11919 -12.5851
3 3.08271 5.3394 -13.2143
4 0 7.11919 -12.5851
3 7.70676 8.0091 -13.2143
3 4.62405 8.0091 -13.2143
3 6.1654 5.3394 -13.2143
4 7.70676 4.44949 -12.5851
4 4.62405 4.44949 -12.5851
4 6.1654 7.11919 -12.5851
3 10.7895 8.0091 -13.2143
3 12.3308 5.3394 -13.2143
4 10.7895 4.44949 -12.5851
4 9.24811 7.11919 -12.5851
3 9.24811 5.3394 -13.2143
4 12.3308 7.11919 -12.5851
3 16.9549 8.0091 -13.2143
3 13.8722 8.0091 -13.2143
4 16.9549 4.44949 -12.5851
4 13.8722 4.44949 -12.5851
4 15.4135 7.11919 -12.5851
3 15.4135 5.3394 -13.2143
4 3.08271 10.6788 -15.1021
3 3.08271 10.6788 -13.2143
4 0 10.6788 -15.1021
4 1.54135 9.78889 -12.5851
4 0 12.4586 -12.5851
3 0 10.6788 -13.2143
4 3.08271 12.4586 -12.5851
4 6.1654 10.6788 -15.1021
4 7.70676 9.78889 -12.5851
4 4.62405 9.78889 -12.5851
4 6.1654 12.4586 -12.5851
3 6.1654 10.6788 -13.2143
4 9.24811 10.6788 -15.1021
3 9.24811 10.6788 -13.2143
4 10.7895 9.78889 -12.5851
4 12.3308 12.4586 -12.5851
3 12.3308 10.6788 -13.2143
4 9.24811 12.4586 -12.5851
3 15.4135 10.6788 -13.2143
4 16.9549 9.78889 -12.5851
4 13.8722 9.78889 -12.5851
4 15.4135 12.4586 -12.5851
4 1.54135 13.3485 -15.1021
3 1.54135 13.3485 -13.2143
3 0 16.0182 -13.2143
4 1.54135 15.1283 -12.5851
3 3.08271 16.0182 -13.2143
4 7.70676 13.3485 -15.1021
3 7.70676 13.3485 -13.2143
3 4.62405 13.3485 -13.2143
3 6.1654 16.0182 -13.2143
4 7.70676 15.1283 -12.5851
4 4.62405 15.1283 -12.5851
3 10.7895 13.3485 -13.2143
3 12.3308 16.0182 -13.2143
4 10.7895 15.1283 -12.5851
3 9.24811 16.0182 -13.2143
3 16.9549 13.3485 -13.2143
3 13.8722 13.3485 -13.2143
4 16.9549 15.1283 -12.5851
4 13.8722 15.1283 -12.5851
3 15.4135 16.0182 -13.2143
3 1.54135 18.6879 -13.2143
4 1.54135 20.4677 -12.5851
4 3.08271 17.798 -12.5851
4 0 17.798 -12.5851
3 7.70676 18.6879 -13.2143
3 4.62405 18.6879 -13.2143
4 7.70676 20.4677 -12.5851
4 4.62405 20.4677 -12.5851
4 6.1654 17.798 -12.5851
3 10.7895 18.6879 -13.2143
4 10.7895 20.4677 -12.5851
4 9.24811 17.798 -12.5851
4 12.3308 17.798 -12.5851
3 16.9549 18.6879 -13.2143
3 13.8722 18.6879 -13.2143
4 16.9549 20.4677 -12.5851
4 13.8722 20.4677 -12.5851
4 15.4135 17.798 -12.5851
4 0 0 -7.55105
4 3.08271 0 -7.55105
3 0 3.55961 -8.18029
4 1.54135 2.6697 -7.55105
4 0 3.55961 -10.0681
3 0 1.7798 -10.6973
4 1.54135 0.8899 -10.0681
4 3.08271 3.55961 -10.0681
3 3.08271 1.7798 -10.6973
3 1.54135 0.8899 -8.18029
3 3.08271 3.55961 -8.18029
4 6.1654 0 -7.55105
3 6.1654 3.55961 -8.18029
4 4.62405 2.6697 -7.55105
4 7.70676 2.6697 -7.55105
3 6.1654 1.7798 -10.6973
4 7.70676 0.8899 -10.0681
3 7.70676 0.8899 -8.18029
4 4.62405 0.8899 -10.0681
3 4.62405 0.8899 -8.18029
4 6.1654 3.55961 -10.0681
4 12.3308 4.44088e-16 -7.55105
4 9.24811 4.44088e-16 -7.55105
3 12.3308 1.7798 -10.6973
4 10.7895 0.8899 -10.0681
4 9.24811 3.55961 -10.0681
3 9.24811 1.7798 -10.6973
3 10.7895 0.8899 -8.18029
3 9.24811 3.55961 -8.18029
4 12.3308 3.55961 -10.0681
4 10.7895 2.6697 -7.55105
3 12.3308 3.55961 -8.18029
4 15.4135 0 -7.55105
4 16.9549 0.8899 -10.0681
4 13.8722 0.8899 -10.0681
4 15.4135 3.55961 -10.0681
3 15.4135 1.7798 -10.6973
3 16.9549 0.8899 -8.18029
3 13.8722 0.8899 -8.18029
3 15.4135 3.55961 -8.18029
4 16.9549 2.6697 -7.55105
4 13.8722 2.6697 -7.55105
4 3.08271 5.3394 -7.55105
4 0 5.3394 -7.55105
3 1.54135 4.44949 -10.6973
3 3.08271 7.11919 -10.6973
4 1.54135 6.2293 -10.0681
3 0 7.11919 -10.6973
3 1.54135 6.2293 -8.18029
4 1.54135 8.0091 -7.55105
4 6.1654 5.3394 -7.55105
3 7.70676 4.44949 -10.6973
3 4.62405 4.44949 -10.6973
4 7.70676 6.2293 -10.0681
4 4.62405 6.2293 -10.0681
3 6.1654 7.11919 -10.6973
3 7.70676 6.2293 -8.18029
3 4.62405 6.2293 -8.18029
4 7.70676 8.0091 -7.55105
4 4.62405 8.0091 -7.55105
4 9.24811 5.3394 -7.55105
3 10.7895 4.44949 -10.6973
3 9.24811 7.11919 -10.6973
4 10.7895 6.2293 -10.0681
3 12.3308 7.11919 -10.6973
3 10.7895 6.2293 -8.18029
4 10.7895 8.0091 -7.55105
4 12.3308 5.3394 -7.55105
3 16.9549 4.44949 -10.6973
3 13.8722 4.44949 -10.6973
3 15.4135 7.11919 -10.6973
4 16.9549 6.2293 -10.0681
3 16.9549 6.2293 -8.18029
4 13.8722 6.2293 -10.0681
3 13.8722 6.2293 -8.18029
4 16.9549 8.0091 -7.55105
4 13.8722 8.0091 -7.55105
4 15.4135 5.3394 -7.55105
3 1.54135 9.78889 -10.6973
3 0 12.4586 -10.6973
4 1.54135 11.5687 -10.0681
3 3.08271 12.4586 -10.6973
3 1.54135 11.5687 -8.18029
4 0 8.899 -10.0681
3 0 8.899 -8.18029
4 3.08271 8.899 -10.0681
4 3.08271 10.6788 -7.55105
3 3.08271 8.899 -8.18029
4 0 10.6788 -7.55105
3 7.70676 9.78889 -10.6973
3 4.62405 9.78889 -10.6973
3 6.1654 12.4586 -10.6973
4 7.70676 11.5687 -10.0681
3 7.70676 11.5687 -8.18029
4 4.62405 11.5687 -10.0681
3 4.62405 11.5687 -8.18029
4 6.1654 8.899 -10.0681
3 6.1654 8.899 -8.18029
4 6.1654 10.6788 -7.55105
3 10.7895 9.78889 -10.6973
3 12.3308 12.4586 -10.6973
4 10.7895 11.5687 -10.0681
3 9.24811 12.4586 -10.6973
3 10.7895 11.5687 -8.18029
4 12.3308 8.899 -10.0681
3 12.3308 8.899 -8.18029
4 9.24811 8.899 -10.0681
4 9.24811 10.6788 -7.55105
3 9.24811 8.899 -8.18029
4 12.3308 10.6788 -7.55105
3 16.9549 9.78889 -10.6973
3 13.8722 9.78889 -10.6973
4 16.9549 11.5687 -10.0681
4 13.8722 11.5687 -10.0681
3 15.4135 12.4586 -10.6973
3 16.9549 11.5687 -8.18029
3 13.8722 11.5687 -8.18029
4 15.4135 8.899 -10.0681
4 15.4135 10.6788 -7.55105
3 15.4135 8.899 -8.18029
3 1.54135 15.1283 -10.6973
4 1.54135 16.9081 -10.0681
3 1.54135 16.9081 -8.18029
4 3.08271 14.2384 -10.0681
3 3.08271 14.2384 -8.18029
4 0 14.2384 -10.0681
4 1.54135 13.3485 -7.55105
4 0 16.0182 -7.55105
3 0 14.2384 -8.18029
4 3.08271 16.0182 -7.55105
2 6.12127 15.9302 -7.49994
3 7.70676 15.1283 -10.6973
3 4.62405 15.1283 -10.6973
4 7.70676 16.9081 -10.0681
4 4.62405 16.9081 -10.0681
3 7.70676 16.9081 -8.18029
3 4.62405 16.9081 -8.18029
4 6.1654 14.2384 -10.0681
4 7.70676 13.3485 -7.55105
4 4.62405 13.3485 -7.55105
3 6.1654 14.2384 -8.18029
3 10.7895 15.1283 -10.6973
4 10.7895 16.9081 -10.0681
3 10.7895 16.9081 -8.18029
4 9.24811 14.2384 -10.0681
3 9.24811 14.2384 -8.18029
4 12.3308 14.2384 -10.0681
4 10.7895 13.3485 -7.55105
4 12.3308 16.0182 -7.55105
3 12.3308 14.2384 -8.18029
4 9.24811 16.0182 -7.55105
2 15.4741 16.0058 -7.54491
3 16.9549 15.1283 -10.6973
3 13.8722 15.1283 -10.6973
4 16.9549 16.9081 -10.0681
3 16.9549 16.9081 -8.18029
4 13.8722 16.9081 -10.0681
3 13.8722 16.9081 -8.18029
4 15.4135 14.2384 -10.0681
3 15.4135 14.2384 -8.18029
4 16.9549 13.3485 -7.55105
4 13.8722 13.3485 -7.55105
3 1.54135 20.4677 -10.6973
3 3.08271 17.798 -10.6973
4 0 19.5778 -10.0681
3 0 17.798 -10.6973
3 0 19.5778 -8.18029
4 3.08271 19.5778 -10.0681
4 1.54135 18.6879 -7.55105
3 3.08271 19.5778 -8.18029
3 7.70676 20.4677 -10.6973
3 4.62405 20.4677 -10.6973
4 6.1654 19.5778 -10.0681
3 6.1654 17.798 -10.6973
3 6.1654 19.5778 -8.18029
4 7.70676 18.6879 -7.55105
4 4.62405 18.6879 -7.55105
3 10.7895 20.4677 -10.6973
3 9.24811 17.798 -10.6973
4 12.3308 19.5778 -10.0681
3 12.3308 17.798 -10.6973
3 12.3308 19.5778 -8.18029
4 9.24811 19.5778 -10.0681
4 10.7895 18.6879 -7.55105
3 9.24811 19.5778 -8.18029
2 16.941 18.737 -7.52413
3 16.9549 20.4677 -10.6973
3 13.8722 20.4677 -10.6973
3 15.4135 17.798 -10.6973
4 15.4135 19.5778 -10.0681
4 13.8722 18.6879 -7.55105
3 15.4135 19.5778 -8.18029
1 1.52308 2.61524 -5.70787
1 3.12363 0.0456031 -5.71878
2 18.3924 1.89786 -5.07266
1 0.0504463 0.0826503 -5.63886
1 -0.0637952 1.85295 -3.2318
2 3.10846 1.77629 -5.07031
2 1.51085 0.876531 -2.64364
2 3.0406 3.59465 -2.63511
1 2.97229 1.75268 -3.21893
2 18.5146 3.56325 -2.55251
1 7.60518 2.72008 -5.62928
1 4.68362 2.66791 -5.62764
2 6.13328 1.71375 -4.97452
1 6.21252 -0.00172843 -5.67786
1 6.10004 1.83508 -3.16164
2 7.72071 1.09802 -2.44844
2 4.63014 0.931568 -2.47577
2 6.17053 3.66308 -2.59572
1 10.7025 2.63548 -5.64263
1 9.24128 21.4125 -5.74971
2 12.2763 1.7115 -5.12649
1 12.2699 0.085769 -5.70832
1 12.2764 1.80259 -3.17212
2 9.14588 1.80289 -5.08287
2 10.8449 0.980495 -2.61521
2 9.3117 3.50834 -2.55496
1 9.24931 1.76794 -3.11636
2 12.2208 3.65758 -2.47752
1 16.861 2.59279 -5.74363
1 13.841 2.63878 -5.73783
1 15.3775 21.3205 -5.68567
2 15.2762 1.79635 -5.1375
2 16.9318 1.01225 -2.58532
2 13.9129 1.03194 -2.57367
2 15.3928 3.64004 -2.47632
1 15.4317 1.85848 -3.25592
1 1.50325 8.1118 -5.69489
1 18.4872 5.34017 -5.61409
2 1.50524 4.35414 -5.06019
2 2.94957 7.27307 -5.08801
1 3.04987 5.34058 -5.63517
1 1.56587 4.4762 -3.1811
1 2.99587 7.09699 -3.16947
2 18.4225 7.06226 -4.98472
2 1.46948 6.20591 -2.55036
1 0.0102734 7.11726 -3.12117
1 7.72948 8.02795 -5.61146
1 4.68503 8.06932 -5.5948
1 6.195 5.35274 -5.74357
2 7.79616 4.37187 -4.92868
1 7.78143 4.50366 -3.16905
2 4.73874 4.46461 -5.02121
1 4.54896 4.48009 -3.13599
2 6.19395 7.10071 -5.15736
2 7.55064 6.21688 -2.43706
2 4.64996 6.09431 -2.48048
1 6.04272 7.10733 -3.10769
1 10.8325 8.08927 -5.59297
1 12.3114 5.39911 -5.6326
2 10.7367 4.34641 -5.10475
2 9.21412 7.07286 -4.97447
1 9.19828 5.41379 -5.68315
1 10.7734 4.38437 -3.18379
1 9.15688 7.19141 -3.07459
2 12.3129 7.18781 -4.93573
2 10.8972 6.17049 -2.61007
1 12.3967 7.07056 -3.16236
1 16.8653 8.05139 -5.7258
1 13.8128 7.93118 -5.67872
2 16.9187 4.40017 -4.93586
2 13.9381 4.54408 -4.99885
2 15.333 7.12633 -5.00898
1 15.4031 5.34034 -5.75497
1 16.8514 4.51581 -3.00199
1 13.8177 4.46482 -3.2039
1 15.4974 7.15598 -3.1734
2 16.9115 6.23698 -2.54393
2 14.0565 6.21763 -2.63186
1 3.074 10.6669 -5.58803
2 1.44796 9.83126 -4.9472
2 -0.054163 12.4316 -5.13902
1 18.5345 10.7457 -5.64581
1 1.53302 9.80092 -3.16556
1 -0.0752001 12.4763 -3.13121
2 3.02635 12.3505 -5.00181
2 1.60028 11.4962 -2.62566
1 3.09142 12.5203 -3.14736
2 18.4892 8.90111 -2.45792
2 3.08921 8.94411 -2.61134
2 7.6148 9.85842 -5.04274
2 4.6765 9.88041 -4.95367
2 6.24925 12.4249 -4.97511
1 6.07885 10.7416 -5.71462
1 7.65676 9.84881 -3.15203
1 4.64766 9.88973 -3.11486
1 6.10727 12.5218 -3.15367
2 7.58538 11.504 -2.55953
2 4.56852 11.7029 -2.52349
2 6.09703 8.90531 -2.49222
1 9.14524 10.7385 -5.60496
2 10.8279 9.91402 -5.0533
2 12.3006 12.4376 -5.17878
1 12.2955 10.6749 -5.66587
1 10.7839 9.83911 -3.2094
1 12.3273 12.534 -3.18693
2 9.24035 12.422 -4.96682
2 10.8312 11.6909 -2.67414
1 9.23543 12.4444 -3.17364
2 12.3277 9.04538 -2.53155
2 9.13116 9.02331 -2.4328
1 15.3754 10.739 -5.75266
2 16.8964 9.72097 -4.97683
1 17.0098 9.87575 -3.24078
2 13.8772 9.79078 -5.13002
1 13.7862 9.86346 -3.17322
2 15.3072 12.4893 -5.08314
2 16.8012 11.4737 -2.52853
2 13.7366 11.6073 -2.52686
1 15.35 12.3886 -3.07227
2 15.3788 9.13959 -2.45849
1 1.49644 13.3739 -5.63133
1 18.4832 16.0262 -5.74928
2 1.49675 15.0798 -4.93749
1 3.12112 16.0574 -5.60939
1 1.56576 15.1312 -3.14428
2 1.44576 17.0445 -2.54468
2 3.09399 14.2574 -2.5752
2 18.5683 14.151 -2.55344
1 7.71783 13.3368 -5.6095
1 4.61562 13.3745 -5.65076
1 6.21353 16.0254 -5.67047
2 7.6681 15.0173 -4.96052
1 7.6304 15.1073 -3.18732
2 4.65598 15.0318 -5.02605
1 4.64087 15.1411 -3.21534
2 7.84037 16.8705 -2.56176
2 4.7664 17.0252 -2.51936
2 6.19479 14.2062 -2.64128
1 10.8171 13.3542 -5.76069
1 12.2855 15.95 -5.6213
2 10.6921 15.0899 -5.07424
1 9.18287 15.927 -5.58325
1 10.8371 15.1513 -3.19736
2 10.684 16.94 -2.46694
2 9.29759 14.2816 -2.61505
2 12.2598 14.2229 -2.53818
1 17.0047 13.3337 -5.76663
1 13.8328 13.2804 -5.74924
2 17.0316 15.004 -5.19851
2 13.9634 14.9832 -5.0546
1 15.4179 15.9566 -5.73934
1 17.0217 15.0835 -3.21207
1 13.855 15.1257 -3.18897
2 17.0323 16.8141 -2.68175
2 13.8768 16.8044 -2.46821
2 15.3451 14.1734 -2.59975
1 1.48558 18.7529 -5.62699
2 1.61004 20.4372 -4.99508
1 1.48796 20.4413 -3.16104
2 3.14473 17.8501 -4.97662
1 3.14985 17.793 -3.09433
2 18.4017 17.7501 -5.15451
2 18.3902 19.7217 -2.50414
1 18.4216 17.8618 -3.23952
2 3.04665 19.5254 -2.55485
1 7.77206 18.678 -5.66101
1 4.61098 18.7182 -5.65371
2 7.69195 20.3854 -5.15905
2 4.71031 20.5334 -5.03644
1 7.66645 20.6348 -3.20039
1 4.66179 20.5826 -3.06995
2 6.1077 17.7535 -5.03672
2 6.28595 19.7304 -2.61381
1 6.1668 17.8524 -3.24749
1 10.8235 18.7252 -5.73417
2 10.7413 20.4414 -4.98558
1 10.8424 20.446 -3.12869
2 9.15586 17.743 -5.05332
1 9.28487 17.8756 -3.20962
2 12.2899 17.8795 -5.02621
2 12.2502 19.6126 -2.39368
1 12.2833 17.8123 -3.09561
2 9.26042 19.7535 -2.42054
1 16.8823 18.6866 -5.65341
1 13.8563 18.7481 -5.59024
2 16.9745 20.592 -5.0708
1 16.9662 20.6287 -3.15244
2 13.7116 20.5048 -5.04628
1 13.9028 20.4147 -3.06941
2 15.3971 17.814 -5.0624
1 15.3823 17.7613 -3.26611
2 15.381 19.5425 -2.64772
1 1.53066 0.867615 -0.736887
1 3.02719 3.55311 -0.709659
2 1.53979 2.60808 -0.394742
1 18.3239 3.36311 -0.579545
2 3.12609 0.16512 -0.251707
2 18.4773 0.0116384 -0.571243
1 7.80391 1.23292 -0.613424
1 4.62784 1.02536 -0.702218
2 4.60001 2.87379 -0.468143
1 5.99293 3.99856 -0.535382
2 6.28275 0.227936 -0.390195
1 10.8266 0.968165 -0.64546
1 9.18138 3.51671 -0.548971
2 10.9142 2.74286 -0.363803
1 12.4534 3.60491 -0.550078
2 9.24471 0.124107 -0.0890033
2 12.4046 0.137994 -0.215999
1 16.9209 1.07856 -0.703863
1 13.8995 0.988794 -0.692188
1 15.0744 3.06368 -0.467204
2 15.4327 -0.00144574 -0.628418
1 1.40949 6.2043 -0.581516
2 1.38378 7.8415 -0.164238
2 18.3735 5.09458 -0.198609
2 2.95046 5.31538 -0.282851
1 7.65406 6.06332 -0.655901
1 4.54518 6.12219 -0.524052
2 7.76414 7.87741 -0.445051
2 4.63331 7.96691 -0.421581
1 10.856 6.30575 -0.661829
2 10.8411 8.08357 -0.174514
2 12.5573 5.39045 -0.399261
2 9.2594 5.27947 -0.420523
1 14.1435 6.28262 -0.642936
2 14.0805 8.1717 -0.152465
1 1.43161 11.4804 -0.725753
1 18.259 8.74039 -0.61861
2 2.98847 10.6485 -0.262059
1 3.00964 8.8247 -0.684216
2 18.4886 10.6367 -0.372996
1 7.70674 11.6148 -0.622403
1 4.65911 11.5287 -0.658108
1 6.1427 8.80063 -0.614182
2 6.22257 10.6713 -0.349872
1 10.8064 11.5602 -0.815575
1 12.4842 9.06608 -0.456682
2 9.27743 10.7174 -0.503477
1 9.34308 8.89535 -0.429939
1 16.8895 11.3989 -0.621912
1 15.655 9.17865 -0.59104
1 1.47387 16.8678 -0.641777
1 3.13577 14.213 -0.649009
2 1.54804 13.3954 -0.476433
2 18.5371 16.0305 -0.102452
1 18.3282 14.1613 -0.482101
2 3.18698 16.0431 -0.609896
1 7.74111 16.9522 -0.675153
1 4.73727 16.919 -0.741811
2 7.62842 13.3091 -0.311796
2 4.6494 13.2556 -0.363987
2 6.24301 15.9963 -0.198679