162
Atoms. Timestep: 0
4 0 0 -8.7192
4 2.1798 0 -6.5394
4 0 2.1798 -6.5394
4 2.1798 2.1798 -8.7192
3 1.0899 1.0899 -7.6293
3 3.2697 1.0899 -5.4495
3 1.0899 3.2697 -5.4495
3 3.2697 3.2697 -7.6293
4 4.3596 0 -8.7192
4 6.5394 0 -6.5394
4 4.3596 2.1798 -6.5394
4 6.5394 2.1798 -8.7192
3 5.4495 1.0899 -7.6293
3 7.6293 1.0899 -5.4495
3 5.4495 3.2697 -5.4495
3 7.6293 3.2697 -7.6293
4 8.7192 0 -8.7192
4 10.899 0 -6.5394
4 8.7192 2.1798 -6.5394
4 10.899 2.1798 -8.7192
3 9.8091 1.0899 -7.6293
3 11.9889 1.0899 -5.4495
3 9.8091 3.2697 -5.4495
3 11.9889 3.2697 -7.6293
4 0 4.3596 -8.7192
4 2.1798 4.3596 -6.5394
4 0 6.5394 -6.5394
4 2.1798 6.5394 -8.7192
3 1.0899 5.4495 -7.6293
3 3.2697 5.4495 -5.4495
3 1.0899 7.6293 -5.4495
3 3.2697 7.6293 -7.6293
4 4.3596 4.3596 -8.7192
4 6.5394 4.3596 -6.5394
4 4.3596 6.5394 -6.5394
4 6.5394 6.5394 -8.7192
3 5.4495 5.4495 -7.6293
3 7.6293 5.4495 -5.4495
3 5.4495 7.6293 -5.4495
3 7.6293 7.6293 -7.6293
4 8.7192 4.3596 -8.7192
4 10.899 4.3596 -6.5394
4 8.7192 6.5394 -6.5394
4 10.899 6.5394 -8.7192
3 9.8091 5.4495 -7.6293
3 11.9889 5.4495 -5.4495
3 9.8091 7.6293 -5.4495
3 11.9889 7.6293 -7.6293
4 0 8.7192 -8.7192
4 2.1798 8.7192 -6.5394
4 0 10.899 -6.5394
4 2.1798 10.899 -8.7192
3 1.0899 9.8091 -7.6293
3 3.2697 9.8091 -5.4495
3 1.0899 11.9889 -5.4495
3 3.2697 11.9889 -7.6293
4 4.3596 8.7192 -8.7192
4 6.5394 8.7192 -6.5394
4 4.3596 10.899 -6.5394
4 6.5394 10.899 -8.7192
3 5.4495 9.8091 -7.6293
3 7.6293 9.8091 -5.4495
3 5.4495 11.9889 -5.4495
3 7.6293 11.9889 -7.6293
4 8.7192 8.7192 -8.7192
4 10.899 8.7192 -6.5394
4 8.7192 10.899 -6.5394
4 10.899 10.899 -8.7192
3 9.8091 9.8091 -7.6293
3 11.9889 9.8091 -5.4495
3 9.8091 11.9889 -5.4495
3 11.9889 11.9889 -7.6293
2 2.13976 0.0488976 -2.19134
2 13.0754 2.1868 -2.1417
1 1.16642 1.10223 -3.26105
1 3.27569 1.06517 -1.1201
1 1.17625 3.25865 -1.0666
1 3.2756 3.31714 -3.28618
4 2.1798 2.1798 -4.3596
4 0 0 -4.3596
2 6.53554 0.0236054 -2.19002
2 4.33237 2.15682 -2.28998
1 5.43142 1.10743 -3.32807
1 7.63308 1.09343 -1.16464
1 5.43955 3.25571 -1.12159
1 7.58236 3.34243 -3.23186
4 6.5394 2.1798 -4.3596
4 4.3596 0 -4.3596
2 10.9535 13.0589 -2.25819
2 8.70116 2.11618 -2.23145
1 9.8713 1.06441 -3.24522
1 12.0049 1.03394 -1.10882
1 9.85069 3.18214 -1.1034
1 11.9775 3.31468 -3.27899
4 10.899 2.1798 -4.3596
4 8.7192 0 -4.3596
2 2.19354 4.3095 -2.2095
2 0.0208289 6.44292 -2.17146
1 1.13929 5.40527 -3.30041
1 3.23694 5.45586 -1.14797
1 1.04609 7.57446 -1.12124
1 3.24482 7.63029 -3.26381
4 2.1798 6.5394 -4.3596
4 0 4.3596 -4.3596
4 6.5394 6.5394 -4.3596
2 6.52626 4.44168 -2.19075
2 4.32891 6.54216 -2.20013
4 4.3596 4.3596 -4.3596
1 5.42769 5.49053 -3.28686
1 7.62988 5.42696 -1.02984
1 5.43845 7.58844 -1.09189
1 7.66872 7.66245 -3.26578
4 10.899 6.5394 -4.3596
4 8.7192 4.3596 -4.3596
2 10.8006 4.37713 -2.11087
2 8.68376 6.45967 -2.14763
1 9.79463 5.44019 -3.30576
1 12.0038 5.34214 -1.09368
1 9.78721 7.52191 -1.11292
1 11.9434 7.544 -3.25008
4 2.1798 10.899 -4.3596
4 0 8.7192 -4.3596
2 2.14167 8.71021 -2.29313
2 13.0222 10.9278 -2.2227
1 1.07062 9.82589 -3.28482
1 3.23477 9.82953 -1.1382
1 1.0834 11.9393 -1.18613
1 3.27332 12.0044 -3.31949
4 6.5394 10.899 -4.3596
4 4.3596 8.7192 -4.3596
2 6.59309 8.76639 -2.12768
2 4.38438 10.8664 -2.23675
1 5.50922 9.78993 -3.27308
1 7.69648 9.77337 -1.10565
1 5.42849 11.9677 -1.16201
1 7.62269 11.966 -3.24002
4 10.899 10.899 -4.3596
4 8.7192 8.7192 -4.3596
2 10.8411 8.72846 -2.2223
2 8.76957 10.7821 -2.22317
1 9.84121 9.76849 -3.29903
1 11.9868 9.81075 -1.02944
1 9.81529 11.9393 -1.16342
1 11.9642 11.9825 -3.31975
2 0.00768496 13.0231 -0.322419
2 2.23042 2.09411 -0.214178
2 4.39508 0.087816 -0.279485
2 6.4492 2.05863 -0.344042
2 8.69836 12.9874 -0.224485
2 11.014 2.1224 -0.275684
2 13.069 4.30911 -0.187393
2 2.17806 6.55704 -0.291396
2 4.40002 4.35859 -0.220805
2 6.3898 6.39464 -0.190637
2 8.78328 4.35045 -0.175413
2 10.758 6.34561 -0.199181
2 13.0161 8.65813 -0.157103
2 2.11436 10.8382 -0.274794
2 4.26345 8.58498 -0.232559
2 6.5042 10.8801 -0.266842
2 8.69838 8.61579 -0.190445
2 10.9248 10.9781 -0.19191
163
Atoms. Timestep: 100
4 0 0 -8.7192
4 2.1798 0 -6.5394
4 0 2.1798 -6.5394
4 2.1798 2.1798 -8.7192
3 1.0899 1.0899 -7.6293
3 3.2697 1.0899 -5.4495
3 1.0899 3.2697 -5.4495
3 3.2697 3.2697 -7.6293
4 4.3596 0 -8.7192
4 6.5394 0 -6.5394
4 4.3596 2.1798 -6.5394
4 6.5394 2.1798 -8.7192
3 5.4495 1.0899 -7.6293
3 7.6293 1.0899 -5.4495
3 5.4495 3.2697 -5.4495
3 7.6293 3.2697 -7.6293
4 8.7192 0 -8.7192
4 10.899 0 -6.5394
4 8.7192 2.1798 -6.5394
4 10.899 2.1798 -8.7192
3 9.8091 1.0899 -7.6293
3 11.9889 1.0899 -5.4495
3 9.8091 3.2697 -5.4495
3 11.9889 3.2697 -7.6293
4 0 4.3596 -8.7192
4 2.1798 4.3596 -6.5394
4 0 6.5394 -6.5394
4 2.1798 6.5394 -8.7192
3 1.0899 5.4495 -7.6293
3 3.2697 5.4495 -5.4495
3 1.0899 7.6293 -5.4495
3 3.2697 7.6293 -7.6293
4 4.3596 4.3596 -8.7192
4 6.5394 4.3596 -6.5394
4 4.3596 6.5394 -6.5394
4 6.5394 6.5394 -8.7192
3 5.4495 5.4495 -7.6293
3 7.6293 5.4495 -5.4495
3 5.4495 7.6293 -5.4495
3 7.6293 7.6293 -7.6293
4 8.7192 4.3596 -8.7192
4 10.899 4.3596 -6.5394
4 8.7192 6.5394 -6.5394
4 10.899 6.5394 -8.7192
3 9.8091 5.4495 -7.6293
3 11.9889 5.4495 -5.4495
3 9.8091 7.6293 -5.4495
3 11.9889 7.6293 -7.6293
4 0 8.7192 -8.7192
4 2.1798 8.7192 -6.5394
4 0 10.899 -6.5394
4 2.1798 10.899 -8.7192
3 1.0899 9.8091 -7.6293
3 3.2697 9.8091 -5.4495
3 1.0899 11.9889 -5.4495
3 3.2697 11.9889 -7.6293
4 4.3596 8.7192 -8.7192
4 6.5394 8.7192 -6.5394
4 4.3596 10.899 -6.5394
4 6.5394 10.899 -8.7192
3 5.4495 9.8091 -7.6293
3 7.6293 9.8091 -5.4495
3 5.4495 11.9889 -5.4495
3 7.6293 11.9889 -7.6293
4 8.7192 8.7192 -8.7192
4 10.899 8.7192 -6.5394
4 8.7192 10.899 -6.5394
4 10.899 10.899 -8.7192
3 9.8091 9.8091 -7.6293
3 11.9889 9.8091 -5.4495
3 9.8091 11.9889 -5.4495
3 11.9889 11.9889 -7.6293
2 2.30017 -0.0794648 -2.21713
2 13.175 2.08882 -2.08658
1 1.15648 1.12147 -3.31114
1 3.22063 1.06758 -1.05647
1 1.16355 3.28964 -1.10734
1 3.26821 3.22738 -3.33493
4 2.1798 2.1798 -4.3596
4 0 0 -4.3596
2 6.45349 -0.0327747 -2.18229
2 4.26277 2.23938 -2.28476
1 5.38059 1.04949 -3.3274
1 7.70782 1.04376 -1.11353
1 5.38888 3.31396 -1.20991
1 7.66303 3.2915 -3.25547
4 6.5394 2.1798 -4.3596
4 4.3596 0 -4.3596
2 10.9626 12.9712 -2.29684
2 8.68643 2.20674 -2.29209
1 9.84243 1.05258 -3.23673
1 12.0387 1.04974 -1.14049
1 9.80903 3.24658 -1.144
1 11.9542 3.2742 -3.23404
4 10.899 2.1798 -4.3596
4 8.7192 0 -4.3596
2 2.21556 4.35303 -2.30634
2 -0.0773302 6.36038 -2.15885
1 1.16442 5.44069 -3.2837
1 3.28887 5.40655 -1.15105
1 0.98597 7.50916 -1.15847
1 3.29933 7.64443 -3.21526
4 2.1798 6.5394 -4.3596
4 0 4.3596 -4.3596
4 6.5394 6.5394 -4.3596
2 6.51534 4.48136 -2.28181
2 4.3294 6.53617 -2.1463
4 4.3596 4.3596 -4.3596
1 5.46886 5.54343 -3.34377
1 7.61886 5.44941 -1.00534
1 5.42729 7.57879 -1.01397
1 7.6671 7.69951 -3.22241
4 10.899 6.5394 -4.3596
4 8.7192 4.3596 -4.3596
2 10.9074 4.363 -2.11854
2 8.80802 6.44978 -2.23961
1 9.83261 5.36801 -3.33801
1 11.9813 5.38584 -1.02838
1 9.77946 7.55678 -1.09452
1 11.9699 7.54864 -3.31686
4 2.1798 10.899 -4.3596
4 0 8.7192 -4.3596
2 2.08848 8.7453 -2.12254
2 13.1428 10.9471 -2.27213
1 1.01469 9.82281 -3.31031
1 3.22096 9.74647 -1.14428
1 1.18295 12.008 -1.15702
1 3.23776 11.9964 -3.31795
4 6.5394 10.899 -4.3596
4 4.3596 8.7192 -4.3596
2 6.46141 8.75204 -2.12906
2 4.30094 10.8216 -2.20553
1 5.45619 9.86586 -3.3181
1 7.66036 9.77665 -1.0381
1 5.35754 11.968 -1.08038
1 7.58459 11.9928 -3.29764
4 10.899 10.899 -4.3596
4 8.7192 8.7192 -4.3596
2 10.8854 8.6508 -2.05773
2 8.77795 10.9301 -2.15532
1 9.87741 9.77265 -3.26774
1 11.9827 9.84954 -1.02798
1 9.91554 12.0121 -1.12168
1 12.0307 12.0467 -3.34969
2 0.0124687 12.9062 -0.205969
2 2.19193 2.20337 -0.22927
2 4.52773 0.119927 -0.181159
2 6.4155 2.0386 -0.318486
2 8.66465 12.9483 -0.368362
2 10.8602 2.04455 -0.272779
2 13.2335 4.34548 -0.284355
2 2.18258 6.46226 -0.308751
2 4.28232 4.36897 -0.344738
2 6.38011 6.3025 -0.12807
2 8.80224 4.4138 -0.109909
2 10.7019 6.30798 -0.199474
2 12.916 8.50511 -0.256988
2 2.08127 10.7276 -0.313086
2 4.17279 8.70509 -0.239207
2 6.43202 10.7699 -0.157819
2 8.6952 8.71015 -0.131478
2 11.0487 10.9764 -0.145813
2 8.91271 4.45401 1.39773
163
Atoms. Timestep: 200
4 0 0 -8.7192
4 2.1798 0 -6.5394
4 0 2.1798 -6.5394
4 2.1798 2.1798 -8.7192
3 1.0899 1.0899 -7.6293
3 3.2697 1.0899 -5.4495
3 1.0899 3.2697 -5.4495
3 3.2697 3.2697 -7.6293
4 4.3596 0 -8.7192
4 6.5394 0 -6.5394
4 4.3596 2.1798 -6.5394
4 6.5394 2.1798 -8.7192
3 5.4495 1.0899 -7.6293
3 7.6293 1.0899 -5.4495
3 5.4495 3.2697 -5.4495
3 7.6293 3.2697 -7.6293
4 8.7192 0 -8.7192
4 10.899 0 -6.5394
4 8.7192 2.1798 -6.5394
4 10.899 2.1798 -8.7192
3 9.8091 1.0899 -7.6293
3 11.9889 1.0899 -5.4495
3 9.8091 3.2697 -5.4495
3 11.9889 3.2697 -7.6293
4 0 4.3596 -8.7192
4 2.1798 4.3596 -6.5394
4 0 6.5394 -6.5394
4 2.1798 6.5394 -8.7192
3 1.0899 5.4495 -7.6293
3 3.2697 5.4495 -5.4495
3 1.0899 7.6293 -5.4495
3 3.2697 7.6293 -7.6293
4 4.3596 4.3596 -8.7192
4 6.5394 4.3596 -6.5394
4 4.3596 6.5394 -6.5394
4 6.5394 6.5394 -8.7192
3 5.4495 5.4495 -7.6293
3 7.6293 5.4495 -5.4495
3 5.4495 7.6293 -5.4495
3 7.6293 7.6293 -7.6293
4 8.7192 4.3596 -8.7192
4 10.899 4.3596 -6.5394
4 8.7192 6.5394 -6.5394
4 10.899 6.5394 -8.7192
3 9.8091 5.4495 -7.6293
3 11.9889 5.4495 -5.4495
3 9.8091 7.6293 -5.4495
3 11.9889 7.6293 -7.6293
4 0 8.7192 -8.7192
4 2.1798 8.7192 -6.5394
4 0 10.899 -6.5394
4 2.1798 10.899 -8.7192
3 1.0899 9.8091 -7.6293
3 3.2697 9.8091 -5.4495
3 1.0899 11.9889 -5.4495
3 3.2697 11.9889 -7.6293
4 4.3596 8.7192 -8.7192
4 6.5394 8.7192 -6.5394
4 4.3596 10.899 -6.5394
4 6.5394 10.899 -8.7192
3 5.4495 9.8091 -7.6293
3 7.6293 9.8091 -5.4495
3 5.4495 11.9889 -5.4495
3 7.6293 11.9889 -7.6293
4 8.7192 8.7192 -8.7192
4 10.899 8.7192 -6.5394
4 8.7192 10.899 -6.5394
4 10.899 10.899 -8.7192
3 9.8091 9.8091 -7.6293
3 11.9889 9.8091 -5.4495
3 9.8091 11.9889 -5.4495
3 11.9889 11.9889 -7.6293
2 2.28103 13.043 -2.22619
2 0.127743 2.1534 -2.24429
1 1.06703 1.02841 -3.31517
1 3.31551 1.1503 -1.00264
1 1.13502 3.27927 -1.21607
1 3.2931 3.26449 -3.3823
4 2.1798 2.1798 -4.3596
4 0 0 -4.3596
2 6.43856 12.9972 -2.21722
2 4.32185 2.14981 -2.16644
1 5.3827 1.03628 -3.25647
1 7.68977 1.03658 -1.15264
1 5.46516 3.25395 -1.30293
1 7.6868 3.24197 -3.34352
4 6.5394 2.1798 -4.3596
4 4.3596 0 -4.3596
2 10.9439 13.1186 -2.17553
2 8.77634 2.22894 -2.15351
1 9.78811 1.06793 -3.30569
1 12.1247 1.03522 -1.12025
1 9.73716 3.32231 -1.11845
1 12.033 3.16897 -3.20092
4 10.899 2.1798 -4.3596
4 8.7192 0 -4.3596
2 2.25582 4.36184 -2.27759
2 12.9717 6.45574 -2.2696
1 1.10244 5.41622 -3.33053
1 3.2442 5.48299 -1.19503
1 0.992503 7.53804 -1.12131
1 3.31459 7.58107 -3.29844
4 2.1798 6.5394 -4.3596
4 0 4.3596 -4.3596
4 6.5394 6.5394 -4.3596
2 6.57544 4.35592 -2.24803
2 4.42184 6.5461 -2.17475
4 4.3596 4.3596 -4.3596
1 5.46443 5.47318 -3.27244
1 7.64313 5.43505 -1.04095
1 5.37415 7.59524 -0.91684
1 7.6132 7.65223 -3.22656
4 10.899 6.5394 -4.3596
4 8.7192 4.3596 -4.3596
2 11.0092 4.27523 -2.2605
2 8.75681 6.54598 -2.26569
1 9.85941 5.41969 -3.27504
1 11.9179 5.36295 -0.970401
1 9.78468 7.60552 -0.991744
1 12.0169 7.61039 -3.30221
4 2.1798 10.899 -4.3596
4 0 8.7192 -4.3596
2 2.02697 8.65744 -2.129
2 0.0624713 10.937 -2.21437
1 1.03824 9.79577 -3.31205
1 3.19512 9.76988 -1.0784
1 1.16687 11.9619 -1.07551
1 3.29102 11.95 -3.33768
4 6.5394 10.899 -4.3596
4 4.3596 8.7192 -4.3596
2 6.43743 8.67371 -2.16849
2 4.22214 10.9135 -2.18404
1 5.38167 9.86749 -3.30845
1 7.58351 9.85277 -0.943853
1 5.34553 11.9129 -0.973557
1 7.58336 12.0109 -3.32615
4 10.899 10.899 -4.3596
4 8.7192 8.7192 -4.3596
2 11.0011 8.61556 -2.06302
2 8.73197 11.0168 -2.13689
1 9.87442 9.79934 -3.21356
1 12.0811 9.79402 -1.06503
1 9.93904 12.0467 -1.07934
1 12.0562 11.9821 -3.29934
2 -0.0549516 12.9177 -0.175176
2 2.16327 2.31657 -0.205719
2 4.52704 0.194454 -0.131128
2 6.37063 2.08823 -0.264938
2 8.66084 12.8803 -0.269472
2 10.644 2.03385 -0.300664
2 0.205977 4.4965 -0.191988
2 2.1021 6.41985 -0.292031
2 4.28216 4.25153 -0.382614
2 6.34774 6.34992 -0.118253
2 8.8178 4.43305 0.0151735
2 10.6897 6.3218 -0.213513
2 12.8068 8.40096 -0.35726
2 1.99734 10.7144 -0.297729
2 4.26558 8.66962 -0.169252
2 6.33906 10.7258 -0.132013
2 8.77414 8.70549 -0.160984
2 11.0596 11.061 -0.153499
2 8.91271 4.45401 1.39773
163
Atoms. Timestep: 300
4 0 0 -8.7192
4 2.1798 0 -6.5394
4 0 2.1798 -6.5394
4 2.1798 2.1798 -8.7192
3 1.0899 1.0899 -7.6293
3 3.2697 1.0899 -5.4495
3 1.0899 3.2697 -5.4495
3 3.2697 3.2697 -7.6293
4 4.3596 0 -8.7192
4 6.5394 0 -6.5394
4 4.3596 2.1798 -6.5394
4 6.5394 2.1798 -8.7192
3 5.4495 1.0899 -7.6293
3 7.6293 1.0899 -5.4495
3 5.4495 3.2697 -5.4495
3 7.6293 3.2697 -7.6293
4 8.7192 0 -8.7192
4 10.899 0 -6.5394
4 8.7192 2.1798 -6.5394
4 10.899 2.1798 -8.7192
3 9.8091 1.0899 -7.6293
3 11.9889 1.0899 -5.4495
3 9.8091 3.2697 -5.4495
3 11.9889 3.2697 -7.6293
4 0 4.3596 -8.7192
4 2.1798 4.3596 -6.5394
4 0 6.5394 -6.5394
4 2.1798 6.5394 -8.7192
3 1.0899 5.4495 -7.6293
3 3.2697 5.4495 -5.4495
3 1.0899 7.6293 -5.4495
3 3.2697 7.6293 -7.6293
4 4.3596 4.3596 -8.7192
4 6.5394 4.3596 -6.5394
4 4.3596 6.5394 -6.5394
4 6.5394 6.5394 -8.7192
3 5.4495 5.4495 -7.6293
3 7.6293 5.4495 -5.4495
3 5.4495 7.6293 -5.4495
3 7.6293 7.6293 -7.6293
4 8.7192 4.3596 -8.7192
4 10.899 4.3596 -6.5394
4 8.7192 6.5394 -6.5394
4 10.899 6.5394 -8.7192
3 9.8091 5.4495 -7.6293
3 11.9889 5.4495 -5.4495
3 9.8091 7.6293 -5.4495
3 11.9889 7.6293 -7.6293
4 0 8.7192 -8.7192
4 2.1798 8.7192 -6.5394
4 0 10.899 -6.5394
4 2.1798 10.899 -8.7192
3 1.0899 9.8091 -7.6293
3 3.2697 9.8091 -5.4495
3 1.0899 11.9889 -5.4495
3 3.2697 11.9889 -7.6293
4 4.3596 8.7192 -8.7192
4 6.5394 8.7192 -6.5394
4 4.3596 10.899 -6.5394
4 6.5394 10.899 -8.7192
3 5.4495 9.8091 -7.6293
3 7.6293 9.8091 -5.4495
3 5.4495 11.9889 -5.4495
3 7.6293 11.9889 -7.6293
4 8.7192 8.7192 -8.7192
4 10.899 8.7192 -6.5394
4 8.7192 10.899 -6.5394
4 10.899 10.899 -8.7192
3 9.8091 9.8091 -7.6293
3 11.9889 9.8091 -5.4495
3 9.8091 11.9889 -5.4495
3 11.9889 11.9889 -7.6293
2 2.13761 13.163 -2.13619
2 0.0361339 2.17673 -2.31226
1 1.11761 1.01 -3.30743
1 3.36142 1.21457 -0.953958
1 1.18765 3.31923 -1.19729
1 3.28828 3.30679 -3.3091
4 2.1798 2.1798 -4.3596
4 0 0 -4.3596
2 6.50483 12.9898 -2.17545
2 4.41298 2.078 -2.211
1 5.42504 0.979784 -3.25752
1 7.57982 1.03994 -1.14598
1 5.56835 3.23547 -1.17407
1 7.64348 3.22455 -3.34406
4 6.5394 2.1798 -4.3596
4 4.3596 0 -4.3596
2 10.9533 0.164579 -2.14733
2 8.74209 2.1415 -2.13752
1 9.77685 1.11715 -3.34289
1 12.1366 1.12454 -1.01948
1 9.76215 3.29999 -1.06059
1 12.0351 3.14143 -3.35434
4 10.899 2.1798 -4.3596
4 8.7192 0 -4.3596
2 2.20339 4.36293 -2.27577
2 13.0739 6.54886 -2.28477
1 1.0233 5.41268 -3.3501
1 3.23488 5.47279 -1.18837
1 1.02904 7.52121 -1.08843
1 3.28277 7.61223 -3.38618
4 2.1798 6.5394 -4.3596
4 0 4.3596 -4.3596
4 6.5394 6.5394 -4.3596
2 6.68504 4.22893 -2.20708
2 4.42494 6.56856 -2.21626
4 4.3596 4.3596 -4.3596
1 5.46954 5.43369 -3.25157
1 7.60164 5.48125 -1.05785
1 5.34916 7.59927 -0.906406
1 7.55358 7.58475 -3.27162
4 10.899 6.5394 -4.3596
4 8.7192 4.3596 -4.3596
2 10.9286 4.24123 -2.23573
2 8.64049 6.62681 -2.09756
1 9.88098 5.48972 -3.21853
1 11.9281 5.37924 -0.999202
1 9.82367 7.63916 -0.982332
1 12.0181 7.67199 -3.27758
4 2.1798 10.899 -4.3596
4 0 8.7192 -4.3596
2 2.13822 8.5726 -2.29044
2 0.0211435 10.8514 -2.11933
1 1.12358 9.77181 -3.27489
1 3.1932 9.72997 -1.04618
1 1.07981 11.9677 -1.02542
1 3.25102 12.0054 -3.32332
4 6.5394 10.899 -4.3596
4 4.3596 8.7192 -4.3596
2 6.50296 8.68353 -2.11799
2 4.27933 10.9394 -2.11871
1 5.39965 9.73668 -3.22675
1 7.56316 9.87121 -0.93055
1 5.33321 11.8993 -0.908195
1 7.61456 12.0055 -3.30228
4 10.899 10.899 -4.3596
4 8.7192 8.7192 -4.3596
2 10.9963 8.72275 -2.20815
2 8.68234 10.9451 -2.13568
1 9.8273 9.82186 -3.15177
1 12.1236 9.79624 -1.09354
1 9.89645 12.0178 -1.03808
1 11.9664 11.8796 -3.1933
2 13.013 12.9651 -0.21372
2 2.24584 2.31357 -0.21472
2 4.48088 0.204459 -0.103834
2 6.47355 2.09071 -0.341096
2 8.60754 12.9313 -0.124066
2 10.5984 1.92288 -0.32161
2 0.213946 4.59123 -0.181809
2 1.97955 6.41998 -0.257447
2 4.30747 4.14534 -0.407478
2 6.4043 6.4165 -0.158069
2 8.77838 4.44384 -0.201936
2 10.6746 6.35702 -0.0807466
2 12.726 8.3282 -0.329751
2 1.95435 10.6949 -0.136787
2 4.31332 8.68591 -0.00799396
2 6.23448 10.7378 -0.0637508
2 8.75259 8.79814 -0.067046
2 11.1232 11.0227 -0.250404
2 8.91271 4.45401 1.39773
162
Atoms. Timestep: 400
4 0 0 -8.7192
4 2.1798 0 -6.5394
4 0 2.1798 -6.5394
4 2.1798 2.1798 -8.7192
3 1.0899 1.0899 -7.6293
3 3.2697 1.0899 -5.4495
3 1.0899 3.2697 -5.4495
3 3.2697 3.2697 -7.6293
4 4.3596 0 -8.7192
4 6.5394 0 -6.5394
4 4.3596 2.1798 -6.5394
4 6.5394 2.1798 -8.7192
3 5.4495 1.0899 -7.6293
3 7.6293 1.0899 -5.4495
3 5.4495 3.2697 -5.4495
3 7.6293 3.2697 -7.6293
4 8.7192 0 -8.7192
4 10.899 0 -6.5394
4 8.7192 2.1798 -6.5394
4 10.899 2.1798 -8.7192
3 9.8091 1.0899 -7.6293
3 11.9889 1.0899 -5.4495
3 9.8091 3.2697 -5.4495
3 11.9889 3.2697 -7.6293
4 0 4.3596 -8.7192
4 2.1798 4.3596 -6.5394
4 0 6.5394 -6.5394
4 2.1798 6.5394 -8.7192
3 1.0899 5.4495 -7.6293
3 3.2697 5.4495 -5.4495
3 1.0899 7.6293 -5.4495
3 3.2697 7.6293 -7.6293
4 4.3596 4.3596 -8.7192
4 6.5394 4.3596 -6.5394
4 4.3596 6.5394 -6.5394
4 6.5394 6.5394 -8.7192
3 5.4495 5.4495 -7.6293
3 7.6293 5.4495 -5.4495
3 5.4495 7.6293 -5.4495
3 7.6293 7.6293 -7.6293
4 8.7192 4.3596 -8.7192
4 10.899 4.3596 -6.5394
4 8.7192 6.5394 -6.5394
4 10.899 6.5394 -8.7192
3 9.8091 5.4495 -7.6293
3 11.9889 5.4495 -5.4495
3 9.8091 7.6293 -5.4495
3 11.9889 7.6293 -7.6293
4 0 8.7192 -8.7192
4 2.1798 8.7192 -6.5394
4 0 10.899 -6.5394
4 2.1798 10.899 -8.7192
3 1.0899 9.8091 -7.6293
3 3.2697 9.8091 -5.4495
3 1.0899 11.9889 -5.4495
3 3.2697 11.9889 -7.6293
4 4.3596 8.7192 -8.7192
4 6.5394 8.7192 -6.5394
4 4.3596 10.899 -6.5394
4 6.5394 10.899 -8.7192
3 5.4495 9.8091 -7.6293
3 7.6293 9.8091 -5.4495
3 5.4495 11.9889 -5.4495
3 7.6293 11.9889 -7.6293
4 8.7192 8.7192 -8.7192
4 10.899 8.7192 -6.5394
4 8.7192 10.899 -6.5394
4 10.899 10.899 -8.7192
3 9.8091 9.8091 -7.6293
3 11.9889 9.8091 -5.4495
3 9.8091 11.9889 -5.4495
3 11.9889 11.9889 -7.6293
2 2.13325 0.0662851 -1.98887
2 0.0155824 2.17047 -2.16896
1 1.11979 1.13112 -3.271
1 3.32514 1.18839 -0.971161
1 1.12393 3.33068 -1.07126
1 3.32039 3.28324 -3.2398
4 2.1798 2.1798 -4.3596
4 0 0 -4.3596
2 6.53736 12.9744 -2.09733
2 4.4819 2.20651 -2.27348
1 5.51112 0.979265 -3.28853
1 7.55909 0.938327 -1.09754
1 5.57265 3.31976 -1.05629
1 7.63479 3.23159 -3.25869
4 6.5394 2.1798 -4.3596
4 4.3596 0 -4.3596
2 10.9197 0.0843816 -2.17346
2 8.5972 2.08292 -2.26055
1 9.81888 1.16276 -3.30214
1 12.0554 1.27752 -0.968082
1 9.79984 3.17985 -1.0691
1 11.9649 3.34109 -3.3544
4 10.899 2.1798 -4.3596
4 8.7192 0 -4.3596
2 2.12289 4.41733 -2.29907
2 13.0978 6.52466 -2.18787
1 1.04673 5.46298 -3.27652
1 3.2985 5.46532 -1.17769
1 1.05106 7.52579 -1.10424
1 3.2516 7.62873 -3.36123
4 2.1798 6.5394 -4.3596
4 0 4.3596 -4.3596
4 6.5394 6.5394 -4.3596
2 6.6317 4.33604 -2.188
2 4.28288 6.57967 -2.22755
4 4.3596 4.3596 -4.3596
1 5.49373 5.37697 -3.25619
1 7.57695 5.52793 -1.08876
1 5.38657 7.60873 -0.971913
1 7.56907 7.58873 -3.28955
4 10.899 6.5394 -4.3596
4 8.7192 4.3596 -4.3596
2 10.8449 4.29822 -2.10911
2 8.64167 6.61184 -1.99389
1 9.83232 5.53799 -3.17216
1 11.9762 5.46174 -1.06835
1 9.84173 7.71196 -0.9958
1 11.9881 7.69933 -3.2839
4 2.1798 10.899 -4.3596
4 0 8.7192 -4.3596
2 2.29727 8.62098 -2.2871
2 0.0883312 10.7821 -2.13363
1 1.17975 9.78217 -3.23405
1 3.18163 9.66705 -0.99023
1 1.03122 12.0055 -1.00186
1 3.22197 12.0218 -3.22989
4 6.5394 10.899 -4.3596
4 4.3596 8.7192 -4.3596
2 6.5524 8.70416 -2.00133
2 4.34276 10.827 -2.07317
1 5.45164 9.6767 -3.12453
1 7.57508 9.8319 -0.951317
1 5.29951 11.9889 -0.912126
1 7.66726 11.9495 -3.23557
4 10.899 10.899 -4.3596
4 8.7192 8.7192 -4.3596
2 10.875 8.83839 -2.21473
2 8.66668 10.8395 -2.0822
1 9.70595 9.79832 -3.16543
1 12.0234 9.7033 -1.05773
1 9.80751 11.9988 -1.0036
1 11.9425 11.9693 -3.18059
2 13.0134 13.0496 -0.157999
2 2.31349 2.34195 -0.202593
2 4.44729 0.104983 -0.0526272
2 6.63045 2.07147 -0.248359
2 8.56718 13.0697 -0.111133
2 10.6591 1.79621 -0.254518
2 0.236766 4.54028 -0.301673
2 2.04013 6.29437 -0.221887
2 4.34415 4.30624 -0.245136
2 6.49295 6.48609 -0.161839
2 8.72656 4.44957 -0.273035
2 10.7666 6.40116 -0.0331755
2 12.7622 8.30489 -0.271246
2 1.998 10.6851 -0.0398209
2 4.26379 8.77632 0.0528236
2 6.27978 10.6928 0.013687
2 8.71686 8.90338 0.00382177
2 11.1858 10.9437 -0.245468
163
Atoms. Timestep: 500
4 0 0 -8.7192
4 2.1798 0 -6.5394
4 0 2.1798 -6.5394
4 2.1798 2.1798 -8.7192
3 1.0899 1.0899 -7.6293
3 3.2697 1.0899 -5.4495
3 1.0899 3.2697 -5.4495
3 3.2697 3.2697 -7.6293
4 4.3596 0 -8.7192
4 6.5394 0 -6.5394
4 4.3596 2.1798 -6.5394
4 6.5394 2.1798 -8.7192
3 5.4495 1.0899 -7.6293
3 7.6293 1.0899 -5.4495
3 5.4495 3.2697 -5.4495
3 7.6293 3.2697 -7.6293
4 8.7192 0 -8.7192
4 10.899 0 -6.5394
4 8.7192 2.1798 -6.5394
4 10.899 2.1798 -8.7192
3 9.8091 1.0899 -7.6293
3 11.9889 1.0899 -5.4495
3 9.8091 3.2697 -5.4495
3 11.9889 3.2697 -7.6293
4 0 4.3596 -8.7192
4 2.1798 4.3596 -6.5394
4 0 6.5394 -6.5394
4 2.1798 6.5394 -8.7192
3 1.0899 5.4495 -7.6293
3 3.2697 5.4495 -5.4495
3 1.0899 7.6293 -5.4495
3 3.2697 7.6293 -7.6293
4 4.3596 4.3596 -8.7192
4 6.5394 4.3596 -6.5394
4 4.3596 6.5394 -6.5394
4 6.5394 6.5394 -8.7192
3 5.4495 5.4495 -7.6293
3 7.6293 5.4495 -5.4495
3 5.4495 7.6293 -5.4495
3 7.6293 7.6293 -7.6293
4 8.7192 4.3596 -8.7192
4 10.899 4.3596 -6.5394
4 8.7192 6.5394 -6.5394
4 10.899 6.5394 -8.7192
3 9.8091 5.4495 -7.6293
3 11.9889 5.4495 -5.4495
3 9.8091 7.6293 -5.4495
3 11.9889 7.6293 -7.6293
4 0 8.7192 -8.7192
4 2.1798 8.7192 -6.5394
4 0 10.899 -6.5394
4 2.1798 10.899 -8.7192
3 1.0899 9.8091 -7.6293
3 3.2697 9.8091 -5.4495
3 1.0899 11.9889 -5.4495
3 3.2697 11.9889 -7.6293
4 4.3596 8.7192 -8.7192
4 6.5394 8.7192 -6.5394
4 4.3596 10.899 -6.5394
4 6.5394 10.899 -8.7192
3 5.4495 9.8091 -7.6293
3 7.6293 9.8091 -5.4495
3 5.4495 11.9889 -5.4495
3 7.6293 11.9889 -7.6293
4 8.7192 8.7192 -8.7192
4 10.899 8.7192 -6.5394
4 8.7192 10.899 -6.5394
4 10.899 10.899 -8.7192
3 9.8091 9.8091 -7.6293
3 11.9889 9.8091 -5.4495
3 9.8091 11.9889 -5.4495
3 11.9889 11.9889 -7.6293
2 2.22589 -0.0036732 -1.99801
2 0.019844 2.34805 -2.04224
1 1.06707 1.24838 -3.19753
1 3.31392 1.13549 -1.02975
1 1.12218 3.34778 -1.02598
1 3.31862 3.24693 -3.23299
4 2.1798 2.1798 -4.3596
4 0 0 -4.3596
2 6.4628 12.923 -2.1079
2 4.49513 2.29637 -2.14926
1 5.57154 1.06277 -3.28083
1 7.5499 0.960672 -1.0372
1 5.51003 3.31664 -0.967467
1 7.61828 3.26581 -3.208
4 6.5394 2.1798 -4.3596
4 4.3596 0 -4.3596
2 10.8454 -0.019223 -2.10117
2 8.59728 2.06681 -2.21802
1 9.85267 1.10967 -3.26229
1 12.0312 1.19293 -0.955385
1 9.67183 3.18214 -1.0616
1 11.8844 3.44082 -3.18174
4 10.899 2.1798 -4.3596
4 8.7192 0 -4.3596
2 2.17347 4.38959 -2.17555
2 -0.0829155 6.51492 -2.18818
1 1.09791 5.49809 -3.25923
1 3.32006 5.3823 -1.13372
1 1.13446 7.57589 -1.08786
1 3.30167 7.57563 -3.30357
4 2.1798 6.5394 -4.3596
4 0 4.3596 -4.3596
4 6.5394 6.5394 -4.3596
2 6.48801 4.51093 -2.1386
2 4.2996 6.53751 -2.22407
4 4.3596 4.3596 -4.3596
1 5.48149 5.37961 -3.27887
1 7.62924 5.53209 -1.0938
1 5.39654 7.51292 -1.11162
1 7.65168 7.6304 -3.24794
4 10.899 6.5394 -4.3596
4 8.7192 4.3596 -4.3596
2 10.8263 4.46236 -2.05756
2 8.78587 6.61747 -2.14351
1 9.76009 5.52653 -3.16094
1 12.0078 5.50739 -1.11859
1 9.7409 7.7088 -0.93365
1 11.9407 7.67492 -3.28767
4 2.1798 10.899 -4.3596
4 0 8.7192 -4.3596
2 2.20773 8.73168 -2.07719
2 0.0625475 10.8399 -2.15354
1 1.16745 9.82035 -3.2263
1 3.20253 9.7002 -0.920662
1 1.02851 11.9859 -0.951607
1 3.2432 11.9928 -3.10394
4 6.5394 10.899 -4.3596
4 4.3596 8.7192 -4.3596
2 6.56381 8.64958 -2.00558
2 4.29063 10.7401 -2.0365
1 5.47633 9.79081 -3.11665
1 7.58057 9.80775 -0.960411
1 5.36698 11.9911 -0.943744
1 7.61987 11.9109 -3.20819
4 10.899 10.899 -4.3596
4 8.7192 8.7192 -4.3596
2 10.7654 8.73112 -2.12868
2 8.66574 10.8483 -2.01469
1 9.71824 9.74056 -3.2651
1 11.9999 9.75183 -1.03388
1 9.73936 11.9558 -0.977457
1 11.9883 12.0774 -3.21779
2 12.9703 13.1974 -0.0447558
2 2.31942 2.43503 -0.127594
2 4.29143 0.0792488 -0.0287215
2 6.6404 2.20915 -0.00991386
2 8.72346 13.0713 -0.158073
2 11.0176 2.39782 -0.0106834
2 0.131394 4.58156 -0.260429
2 2.13127 6.24217 -0.260161
2 4.30963 4.29623 -0.0874051
2 6.52962 6.59229 -0.155394
2 8.70373 4.39614 -0.210262
2 11.6349 7.21668 -0.336065
2 12.7078 8.1623 -0.227401
2 2.04198 10.7704 -0.11359
2 4.38623 8.66113 0.0264728
2 6.3171 10.5481 0.0705475
2 8.79675 8.86636 -0.0587391
2 10.8152 10.7796 -0.0699576
2 5.56684 9.27009 0.779051
163
Atoms. Timestep: 600
4 0 0 -8.7192
4 2.1798 0 -6.5394
4 0 2.1798 -6.5394
4 2.1798 2.1798 -8.7192
3 1.0899 1.0899 -7.6293
3 3.2697 1.0899 -5.4495
3 1.0899 3.2697 -5.4495
3 3.2697 3.2697 -7.6293
4 4.3596 0 -8.7192
4 6.5394 0 -6.5394
4 4.3596 2.1798 -6.5394
4 6.5394 2.1798 -8.7192
3 5.4495 1.0899 -7.6293
3 7.6293 1.0899 -5.4495
3 5.4495 3.2697 -5.4495
3 7.6293 3.2697 -7.6293
4 8.7192 0 -8.7192
4 10.899 0 -6.5394
4 8.7192 2.1798 -6.5394
4 10.899 2.1798 -8.7192
3 9.8091 1.0899 -7.6293
3 11.9889 1.0899 -5.4495
3 9.8091 3.2697 -5.4495
3 11.9889 3.2697 -7.6293
4 0 4.3596 -8.7192
4 2.1798 4.3596 -6.5394
4 0 6.5394 -6.5394
4 2.1798 6.5394 -8.7192
3 1.0899 5.4495 -7.6293
3 3.2697 5.4495 -5.4495
3 1.0899 7.6293 -5.4495
3 3.2697 7.6293 -7.6293
4 4.3596 4.3596 -8.7192
4 6.5394 4.3596 -6.5394
4 4.3596 6.5394 -6.5394
4 6.5394 6.5394 -8.7192
3 5.4495 5.4495 -7.6293
3 7.6293 5.4495 -5.4495
3 5.4495 7.6293 -5.4495
3 7.6293 7.6293 -7.6293
4 8.7192 4.3596 -8.7192
4 10.899 4.3596 -6.5394
4 8.7192 6.5394 -6.5394
4 10.899 6.5394 -8.7192
3 9.8091 5.4495 -7.6293
3 11.9889 5.4495 -5.4495
3 9.8091 7.6293 -5.4495
3 11.9889 7.6293 -7.6293
4 0 8.7192 -8.7192
4 2.1798 8.7192 -6.5394
4 0 10.899 -6.5394
4 2.1798 10.899 -8.7192
3 1.0899 9.8091 -7.6293
3 3.2697 9.8091 -5.4495
3 1.0899 11.9889 -5.4495
3 3.2697 11.9889 -7.6293
4 4.3596 8.7192 -8.7192
4 6.5394 8.7192 -6.5394
4 4.3596 10.899 -6.5394
4 6.5394 10.899 -8.7192
3 5.4495 9.8091 -7.6293
3 7.6293 9.8091 -5.4495
3 5.4495 11.9889 -5.4495
3 7.6293 11.9889 -7.6293
4 8.7192 8.7192 -8.7192
4 10.899 8.7192 -6.5394
4 8.7192 10.899 -6.5394
4 10.899 10.899 -8.7192
3 9.8091 9.8091 -7.6293
3 11.9889 9.8091 -5.4495
3 9.8091 11.9889 -5.4495
3 11.9889 11.9889 -7.6293
2 2.1841 13.0898 -2.11492
2 -0.0699895 2.40806 -2.03174
1 1.02072 1.25587 -3.13194
1 3.29033 1.15395 -1.04071
1 1.0724 3.3597 -0.985381
1 3.29136 3.23471 -3.26959
4 2.1798 2.1798 -4.3596
4 0 0 -4.3596
2 6.46084 12.9909 -2.13397
2 4.4441 2.18692 -2.01365
1 5.50267 1.12712 -3.22774
1 7.52802 1.07462 -0.953895
1 5.507 3.28496 -0.862346
1 7.54873 3.33703 -3.23808
4 6.5394 2.1798 -4.3596
4 4.3596 0 -4.3596
2 10.8304 13.0466 -1.99983
2 8.70759 2.10233 -2.05359
1 9.81375 1.01662 -3.23719
1 11.8945 1.09815 -0.945922
1 9.62272 3.26132 -0.958419
1 11.8924 3.29027 -3.12752
4 10.899 2.1798 -4.3596
4 8.7192 0 -4.3596
2 2.26244 4.29419 -2.11708
2 13.054 6.62315 -2.31046
1 1.12823 5.48061 -3.27564
1 3.32832 5.34358 -1.06631
1 1.16459 7.56825 -1.04035
1 3.27714 7.58279 -3.26059
4 2.1798 6.5394 -4.3596
4 0 4.3596 -4.3596
4 6.5394 6.5394 -4.3596
2 6.49411 4.42556 -2.05882
2 4.42888 6.3826 -2.21399
4 4.3596 4.3596 -4.3596
1 5.41798 5.45222 -3.33937
1 7.65541 5.49256 -0.997532
1 5.41643 7.51843 -1.15141
1 7.61506 7.65278 -3.21309
4 10.899 6.5394 -4.3596
4 8.7192 4.3596 -4.3596
2 10.7635 4.54467 -2.07375
2 8.78586 6.62168 -2.21764
1 9.78993 5.4835 -3.27796
1 11.9774 5.6386 -1.00114
1 9.72006 7.61935 -0.868651
1 11.9161 7.60167 -3.27196
4 2.1798 10.899 -4.3596
4 0 8.7192 -4.3596
2 2.10439 8.7374 -1.99644
2 -0.058553 10.9881 -2.11749
1 1.11255 9.82862 -3.23239
1 3.30693 9.80693 -0.865101
1 1.03294 11.9935 -0.907068
1 3.28608 11.94 -3.05712
4 6.5394 10.899 -4.3596
4 4.3596 8.7192 -4.3596
2 6.53822 8.64311 -2.19385
2 4.27992 10.8408 -1.99574
1 5.4425 9.86011 -3.18769
1 7.60067 9.77135 -0.945432
1 5.44434 11.8917 -0.925232
1 7.57774 11.967 -3.19737
4 10.899 10.899 -4.3596
4 8.7192 8.7192 -4.3596
2 10.7922 8.58604 -2.13581
2 8.66586 10.887 -2.09081
1 9.87732 9.79346 -3.31934
1 12.0296 9.84777 -0.996083
1 9.76684 11.8575 -0.964956
1 12.0505 12.0781 -3.25152
2 13.0574 0.113874 -0.0110399
2 2.36265 2.39802 -0.134669
2 4.21909 -0.0160953 -0.100342
2 6.61055 2.32264 0.0437933
2 8.83789 13.0906 -0.149677
2 10.8481 2.33971 -0.128408
2 0.0240939 4.61222 -0.0993401
2 2.10928 6.37096 -0.275686
2 4.29579 4.31802 -0.0482486
2 6.59554 6.6281 -0.216053
2 8.6283 4.36102 -0.142663
2 11.4763 7.17476 -0.399283
2 12.6021 8.22886 -0.336519
2 2.08503 10.8714 -0.0789348
2 4.69051 8.6062 0.0486319
2 6.30022 10.5295 0.0594826
2 8.80644 8.84286 -0.13146
2 10.9004 10.7736 -0.0632697
2 5.51162 9.69381 0.897656
163
Atoms. Timestep: 700
4 0 0 -8.7192
4 2.1798 0 -6.5394
4 0 2.1798 -6.5394
4 2.1798 2.1798 -8.7192
3 1.0899 1.0899 -7.6293
3 3.2697 1.0899 -5.4495
3 1.0899 3.2697 -5.4495
3 3.2697 3.2697 -7.6293
4 4.3596 0 -8.7192
4 6.5394 0 -6.5394
4 4.3596 2.1798 -6.5394
4 6.5394 2.1798 -8.7192
3 5.4495 1.0899 -7.6293
3 7.6293 1.0899 -5.4495
3 5.4495 3.2697 -5.4495
3 7.6293 3.2697 -7.6293
4 8.7192 0 -8.7192
4 10.899 0 -6.5394
4 8.7192 2.1798 -6.5394
4 10.899 2.1798 -8.7192
3 9.8091 1.0899 -7.6293
3 11.9889 1.0899 -5.4495
3 9.8091 3.2697 -5.4495
3 11.9889 3.2697 -7.6293
4 0 4.3596 -8.7192
4 2.1798 4.3596 -6.5394
4 0 6.5394 -6.5394
4 2.1798 6.5394 -8.7192
3 1.0899 5.4495 -7.6293
3 3.2697 5.4495 -5.4495
3 1.0899 7.6293 -5.4495
3 3.2697 7.6293 -7.6293
4 4.3596 4.3596 -8.7192
4 6.5394 4.3596 -6.5394
4 4.3596 6.5394 -6.5394
4 6.5394 6.5394 -8.7192
3 5.4495 5.4495 -7.6293
3 7.6293 5.4495 -5.4495
3 5.4495 7.6293 -5.4495
3 7.6293 7.6293 -7.6293
4 8.7192 4.3596 -8.7192
4 10.899 4.3596 -6.5394
4 8.7192 6.5394 -6.5394
4 10.899 6.5394 -8.7192
3 9.8091 5.4495 -7.6293
3 11.9889 5.4495 -5.4495
3 9.8091 7.6293 -5.4495
3 11.9889 7.6293 -7.6293
4 0 8.7192 -8.7192
4 2.1798 8.7192 -6.5394
4 0 10.899 -6.5394
4 2.1798 10.899 -8.7192
3 1.0899 9.8091 -7.6293
3 3.2697 9.8091 -5.4495
3 1.0899 11.9889 -5.4495
3 3.2697 11.9889 -7.6293
4 4.3596 8.7192 -8.7192
4 6.5394 8.7192 -6.5394
4 4.3596 10.899 -6.5394
4 6.5394 10.899 -8.7192