588
Atoms. Timestep: 0
3 1.54135 2.6697 -13.2143
4 3.08271 8.88179e-16 -15.1021
3 3.08271 8.88179e-16 -13.2143
4 0 0 -15.1021
4 0 1.7798 -12.5851
3 0 0 -13.2143
4 3.08271 1.7798 -12.5851
3 7.70676 2.6697 -13.2143
3 4.62405 2.6697 -13.2143
4 6.1654 0 -15.1021
4 6.1654 1.7798 -12.5851
3 6.1654 0 -13.2143
3 10.7895 2.6697 -13.2143
3 9.24811 0 -13.2143
4 12.3308 0 -15.1021
4 12.3308 1.7798 -12.5851
3 12.3308 0 -13.2143
4 9.24811 1.7798 -12.5851
3 16.9549 2.6697 -13.2143
4 13.8722 2.6697 -15.1021
3 13.8722 2.6697 -13.2143
4 15.4135 8.88179e-16 -15.1021
3 15.4135 0 -13.2143
4 15.4135 1.7798 -12.5851
3 1.54135 8.0091 -13.2143
3 0 5.3394 -13.2143
4 1.54135 4.44949 -12.5851
4 3.08271 7.11919 -12.5851
3 3.08271 5.3394 -13.2143
4 0 7.11919 -12.5851
3 7.70676 8.0091 -13.2143
3 4.62405 8.0091 -13.2143
3 6.1654 5.3394 -13.2143
4 7.70676 4.44949 -12.5851
4 4.62405 4.44949 -12.5851
4 6.1654 7.11919 -12.5851
3 10.7895 8.0091 -13.2143
3 12.3308 5.3394 -13.2143
4 10.7895 4.44949 -12.5851
4 9.24811 7.11919 -12.5851
3 9.24811 5.3394 -13.2143
4 12.3308 7.11919 -12.5851
3 16.9549 8.0091 -13.2143
3 13.8722 8.0091 -13.2143
4 16.9549 4.44949 -12.5851
4 13.8722 4.44949 -12.5851
4 15.4135 7.11919 -12.5851
3 15.4135 5.3394 -13.2143
4 3.08271 10.6788 -15.1021
3 3.08271 10.6788 -13.2143
4 0 10.6788 -15.1021
4 1.54135 9.78889 -12.5851
4 0 12.4586 -12.5851
3 0 10.6788 -13.2143
4 3.08271 12.4586 -12.5851
4 6.1654 10.6788 -15.1021
4 7.70676 9.78889 -12.5851
4 4.62405 9.78889 -12.5851
4 6.1654 12.4586 -12.5851
3 6.1654 10.6788 -13.2143
4 9.24811 10.6788 -15.1021
3 9.24811 10.6788 -13.2143
4 10.7895 9.78889 -12.5851
4 12.3308 12.4586 -12.5851
3 12.3308 10.6788 -13.2143
4 9.24811 12.4586 -12.5851
3 15.4135 10.6788 -13.2143
4 16.9549 9.78889 -12.5851
4 13.8722 9.78889 -12.5851
4 15.4135 12.4586 -12.5851
4 1.54135 13.3485 -15.1021
3 1.54135 13.3485 -13.2143
3 0 16.0182 -13.2143
4 1.54135 15.1283 -12.5851
3 3.08271 16.0182 -13.2143
4 7.70676 13.3485 -15.1021
3 7.70676 13.3485 -13.2143
3 4.62405 13.3485 -13.2143
3 6.1654 16.0182 -13.2143
4 7.70676 15.1283 -12.5851
4 4.62405 15.1283 -12.5851
3 10.7895 13.3485 -13.2143
3 12.3308 16.0182 -13.2143
4 10.7895 15.1283 -12.5851
3 9.24811 16.0182 -13.2143
3 16.9549 13.3485 -13.2143
3 13.8722 13.3485 -13.2143
4 16.9549 15.1283 -12.5851
4 13.8722 15.1283 -12.5851
3 15.4135 16.0182 -13.2143
3 1.54135 18.6879 -13.2143
4 1.54135 20.4677 -12.5851
4 3.08271 17.798 -12.5851
4 0 17.798 -12.5851
3 7.70676 18.6879 -13.2143
3 4.62405 18.6879 -13.2143
4 7.70676 20.4677 -12.5851
4 4.62405 20.4677 -12.5851
4 6.1654 17.798 -12.5851
3 10.7895 18.6879 -13.2143
4 10.7895 20.4677 -12.5851
4 9.24811 17.798 -12.5851
4 12.3308 17.798 -12.5851
3 16.9549 18.6879 -13.2143
3 13.8722 18.6879 -13.2143
4 16.9549 20.4677 -12.5851
4 13.8722 20.4677 -12.5851
4 15.4135 17.798 -12.5851
4 0 0 -7.55105
4 3.08271 0 -7.55105
3 0 3.55961 -8.18029
4 1.54135 2.6697 -7.55105
4 0 3.55961 -10.0681
3 0 1.7798 -10.6973
4 1.54135 0.8899 -10.0681
4 3.08271 3.55961 -10.0681
3 3.08271 1.7798 -10.6973
3 1.54135 0.8899 -8.18029
3 3.08271 3.55961 -8.18029
4 6.1654 0 -7.55105
3 6.1654 3.55961 -8.18029
4 4.62405 2.6697 -7.55105
4 7.70676 2.6697 -7.55105
3 6.1654 1.7798 -10.6973
4 7.70676 0.8899 -10.0681
3 7.70676 0.8899 -8.18029
4 4.62405 0.8899 -10.0681
3 4.62405 0.8899 -8.18029
4 6.1654 3.55961 -10.0681
4 12.3308 4.44088e-16 -7.55105
4 9.24811 4.44088e-16 -7.55105
3 12.3308 1.7798 -10.6973
4 10.7895 0.8899 -10.0681
4 9.24811 3.55961 -10.0681
3 9.24811 1.7798 -10.6973
3 10.7895 0.8899 -8.18029
3 9.24811 3.55961 -8.18029
4 12.3308 3.55961 -10.0681
4 10.7895 2.6697 -7.55105
3 12.3308 3.55961 -8.18029
4 15.4135 0 -7.55105
4 16.9549 0.8899 -10.0681
4 13.8722 0.8899 -10.0681
4 15.4135 3.55961 -10.0681
3 15.4135 1.7798 -10.6973
3 16.9549 0.8899 -8.18029
3 13.8722 0.8899 -8.18029
3 15.4135 3.55961 -8.18029
4 16.9549 2.6697 -7.55105
4 13.8722 2.6697 -7.55105
4 3.08271 5.3394 -7.55105
4 0 5.3394 -7.55105
3 1.54135 4.44949 -10.6973
3 3.08271 7.11919 -10.6973
4 1.54135 6.2293 -10.0681
3 0 7.11919 -10.6973
3 1.54135 6.2293 -8.18029
4 1.54135 8.0091 -7.55105
4 6.1654 5.3394 -7.55105
3 7.70676 4.44949 -10.6973
3 4.62405 4.44949 -10.6973
4 7.70676 6.2293 -10.0681
4 4.62405 6.2293 -10.0681
3 6.1654 7.11919 -10.6973
3 7.70676 6.2293 -8.18029
3 4.62405 6.2293 -8.18029
4 7.70676 8.0091 -7.55105
4 4.62405 8.0091 -7.55105
4 9.24811 5.3394 -7.55105
3 10.7895 4.44949 -10.6973
3 9.24811 7.11919 -10.6973
4 10.7895 6.2293 -10.0681
3 12.3308 7.11919 -10.6973
3 10.7895 6.2293 -8.18029
4 10.7895 8.0091 -7.55105
4 12.3308 5.3394 -7.55105
3 16.9549 4.44949 -10.6973
3 13.8722 4.44949 -10.6973
3 15.4135 7.11919 -10.6973
4 16.9549 6.2293 -10.0681
3 16.9549 6.2293 -8.18029
4 13.8722 6.2293 -10.0681
3 13.8722 6.2293 -8.18029
4 16.9549 8.0091 -7.55105
4 13.8722 8.0091 -7.55105
4 15.4135 5.3394 -7.55105
3 1.54135 9.78889 -10.6973
3 0 12.4586 -10.6973
4 1.54135 11.5687 -10.0681
3 3.08271 12.4586 -10.6973
3 1.54135 11.5687 -8.18029
4 0 8.899 -10.0681
3 0 8.899 -8.18029
4 3.08271 8.899 -10.0681
4 3.08271 10.6788 -7.55105
3 3.08271 8.899 -8.18029
4 0 10.6788 -7.55105
3 7.70676 9.78889 -10.6973
3 4.62405 9.78889 -10.6973
3 6.1654 12.4586 -10.6973
4 7.70676 11.5687 -10.0681
3 7.70676 11.5687 -8.18029
4 4.62405 11.5687 -10.0681
3 4.62405 11.5687 -8.18029
4 6.1654 8.899 -10.0681
3 6.1654 8.899 -8.18029
4 6.1654 10.6788 -7.55105
3 10.7895 9.78889 -10.6973
3 12.3308 12.4586 -10.6973
4 10.7895 11.5687 -10.0681
3 9.24811 12.4586 -10.6973
3 10.7895 11.5687 -8.18029
4 12.3308 8.899 -10.0681
3 12.3308 8.899 -8.18029
4 9.24811 8.899 -10.0681
4 9.24811 10.6788 -7.55105
3 9.24811 8.899 -8.18029
4 12.3308 10.6788 -7.55105
3 16.9549 9.78889 -10.6973
3 13.8722 9.78889 -10.6973
4 16.9549 11.5687 -10.0681
4 13.8722 11.5687 -10.0681
3 15.4135 12.4586 -10.6973
3 16.9549 11.5687 -8.18029
3 13.8722 11.5687 -8.18029
4 15.4135 8.899 -10.0681
4 15.4135 10.6788 -7.55105
3 15.4135 8.899 -8.18029
3 1.54135 15.1283 -10.6973
4 1.54135 16.9081 -10.0681
3 1.54135 16.9081 -8.18029
4 3.08271 14.2384 -10.0681
3 3.08271 14.2384 -8.18029
4 0 14.2384 -10.0681
4 1.54135 13.3485 -7.55105
4 0 16.0182 -7.55105
3 0 14.2384 -8.18029
4 3.08271 16.0182 -7.55105
2 6.13753 15.9664 -7.60717
3 7.70676 15.1283 -10.6973
3 4.62405 15.1283 -10.6973
4 7.70676 16.9081 -10.0681
4 4.62405 16.9081 -10.0681
3 7.70676 16.9081 -8.18029
3 4.62405 16.9081 -8.18029
4 6.1654 14.2384 -10.0681
4 7.70676 13.3485 -7.55105
4 4.62405 13.3485 -7.55105
3 6.1654 14.2384 -8.18029
3 10.7895 15.1283 -10.6973
4 10.7895 16.9081 -10.0681
3 10.7895 16.9081 -8.18029
4 9.24811 14.2384 -10.0681
3 9.24811 14.2384 -8.18029
4 12.3308 14.2384 -10.0681
4 10.7895 13.3485 -7.55105
4 12.3308 16.0182 -7.55105
3 12.3308 14.2384 -8.18029
4 9.24811 16.0182 -7.55105
2 15.2923 16.0429 -7.52749
3 16.9549 15.1283 -10.6973
3 13.8722 15.1283 -10.6973
4 16.9549 16.9081 -10.0681
3 16.9549 16.9081 -8.18029
4 13.8722 16.9081 -10.0681
3 13.8722 16.9081 -8.18029
4 15.4135 14.2384 -10.0681
3 15.4135 14.2384 -8.18029
4 16.9549 13.3485 -7.55105
4 13.8722 13.3485 -7.55105
3 1.54135 20.4677 -10.6973
3 3.08271 17.798 -10.6973
4 0 19.5778 -10.0681
3 0 17.798 -10.6973
3 0 19.5778 -8.18029
4 3.08271 19.5778 -10.0681
4 1.54135 18.6879 -7.55105
3 3.08271 19.5778 -8.18029
3 7.70676 20.4677 -10.6973
3 4.62405 20.4677 -10.6973
4 6.1654 19.5778 -10.0681
3 6.1654 17.798 -10.6973
3 6.1654 19.5778 -8.18029
4 7.70676 18.6879 -7.55105
4 4.62405 18.6879 -7.55105
3 10.7895 20.4677 -10.6973
3 9.24811 17.798 -10.6973
4 12.3308 19.5778 -10.0681
3 12.3308 17.798 -10.6973
3 12.3308 19.5778 -8.18029
4 9.24811 19.5778 -10.0681
4 10.7895 18.6879 -7.55105
3 9.24811 19.5778 -8.18029
2 16.981 18.7067 -7.58128
3 16.9549 20.4677 -10.6973
3 13.8722 20.4677 -10.6973
3 15.4135 17.798 -10.6973
4 15.4135 19.5778 -10.0681
4 13.8722 18.6879 -7.55105
3 15.4135 19.5778 -8.18029
1 1.47283 2.76758 -5.69485
1 3.07979 21.314 -5.63695
2 18.4686 1.80369 -5.10768
1 0.0616233 0.0308647 -5.64976
1 18.3677 1.82553 -3.15084
2 2.97534 1.86897 -4.98007
2 1.45138 0.935695 -2.36701
2 2.92803 3.66308 -2.54839
1 2.91741 1.85072 -3.17754
2 18.4458 3.49701 -2.47786
1 7.62654 2.73885 -5.62212
1 4.48711 2.70366 -5.62737
2 6.11246 1.72855 -5.02897
1 6.25322 0.0275684 -5.69071
1 6.11724 1.82284 -3.11529
2 7.71264 0.987314 -2.57439
2 4.51393 1.02384 -2.55965
2 6.12959 3.73371 -2.50245
1 10.7858 2.61511 -5.58941
1 9.23549 21.3425 -5.67591
2 12.4147 1.81881 -5.17199
1 12.3273 21.311 -5.72442
1 12.4263 1.74507 -3.16878
2 9.16506 1.7276 -5.02948
2 10.8339 0.901555 -2.64066
2 9.17231 3.53417 -2.49819
1 9.21463 1.77393 -3.12079
2 12.2919 3.47808 -2.38217
1 16.9604 2.58621 -5.69307
1 13.9647 2.69484 -5.66005
1 15.4156 21.2594 -5.71648
2 15.5043 1.66215 -4.92356
2 16.9173 0.746102 -2.30274
2 13.8799 0.904898 -2.53446
2 15.3209 3.48447 -2.45581
1 15.3991 1.74762 -2.99381
1 1.49704 8.03919 -5.63643
1 18.4588 5.44345 -5.60992
2 1.5249 4.46589 -4.95001
2 3.03767 7.20832 -4.96714
1 3.04845 5.37517 -5.61396
1 1.43857 4.46991 -3.17011
1 3.07707 7.12075 -3.06636
2 0.0021483 7.23642 -4.9585
2 1.53192 6.32044 -2.42132
1 18.4862 7.23482 -3.08037
1 7.70737 8.0589 -5.58732
1 4.73919 8.03368 -5.64634
1 6.19026 5.37635 -5.65447
2 7.65782 4.43063 -4.95307
1 7.62523 4.52377 -3.09324
2 4.58057 4.51724 -4.9054
1 4.56759 4.43625 -3.03957
2 6.18475 7.18446 -4.94373
2 7.73815 6.2138 -2.59789
2 4.68115 6.30216 -2.41733
1 6.17535 7.22053 -3.07388
1 10.7559 7.94229 -5.68005
1 12.2777 5.27137 -5.65909
2 10.7226 4.37529 -4.95219
2 9.21604 7.1156 -5.07844
1 9.22871 5.39228 -5.64954
1 10.7639 4.45818 -3.08756
1 9.21703 7.11308 -3.19865
2 12.3121 7.12872 -5.08744
2 10.6855 6.32853 -2.5473
1 12.224 7.12889 -3.13459
1 16.9278 8.0585 -5.66042
1 13.8587 8.09634 -5.69576
2 16.9329 4.39956 -4.91673
2 13.9291 4.48362 -5.04011
2 15.4599 7.18606 -5.10744
1 15.4641 5.37951 -5.75052
1 16.9202 4.4502 -3.12607
1 13.7939 4.39264 -3.19488
1 15.4134 7.12171 -3.21007
2 17.0085 6.23956 -2.4807
2 13.8964 6.23975 -2.54824
1 3.09362 10.6758 -5.68802
2 1.68987 9.78013 -5.04335
2 0.0657237 12.4852 -5.10575
1 0.0791116 10.6663 -5.6625
1 1.59854 9.82605 -3.07835
1 0.00153827 12.4742 -3.10212
2 3.09943 12.4171 -5.04501
2 1.44597 11.5661 -2.43068
1 3.13374 12.4863 -3.08856
2 0.0319395 8.96551 -2.36438
2 3.01496 8.88354 -2.50317
2 7.69086 9.81984 -4.99946
2 4.65592 9.76384 -4.97862
2 6.08117 12.3755 -4.94609
1 6.20752 10.6899 -5.5959
1 7.7771 9.77379 -3.04999
1 4.60759 9.74039 -3.06249
1 6.16153 12.4636 -3.13746
2 7.76682 11.6028 -2.47584
2 4.62215 11.454 -2.56352
2 6.27279 9.02239 -2.4444
1 9.31492 10.6477 -5.65244
2 10.7831 9.72095 -4.96783
2 12.4382 12.5649 -5.05256
1 12.3191 10.6883 -5.69074
1 10.8137 9.79181 -3.13589
1 12.4098 12.5041 -3.18766
2 9.32108 12.4484 -5.14622
2 10.8572 11.6827 -2.4592
1 9.30726 12.5094 -3.1866
2 12.4504 8.98215 -2.5901
2 9.24274 9.01585 -2.40317
1 15.4714 10.7153 -5.73662
2 16.9152 9.85599 -5.06965
1 16.9413 9.80104 -3.15444
2 13.8597 9.86044 -5.21717
1 13.9358 9.77071 -3.19748
2 15.3773 12.417 -5.08929
2 17.0939 11.5952 -2.5866
2 13.8877 11.5019 -2.56198
1 15.447 12.4322 -3.16866
2 15.3923 8.89862 -2.48046
1 1.57847 13.3726 -5.67691
1 18.4736 15.9257 -5.61257
2 1.58393 15.1597 -5.02395
1 3.04616 16.0416 -5.63616
1 1.68901 15.137 -3.11683
2 1.46924 16.9816 -2.38994
2 3.16174 14.3163 -2.51746
2 0.154444 14.234 -2.54195
1 7.59976 13.3582 -5.66301
1 4.60066 13.4781 -5.61342
1 6.20517 16.0886 -5.7478
2 7.61889 15.2373 -5.15561
1 7.67206 15.1433 -3.13121
2 4.63327 15.3646 -4.9518
1 4.67943 15.325 -3.06065
2 7.66409 16.8781 -2.6287
2 4.67303 17.0104 -2.37224
2 6.19468 14.2655 -2.38085
1 10.8601 13.3294 -5.64586
1 12.3494 15.9704 -5.63952
2 10.7979 14.9924 -5.07382
1 9.29039 15.9585 -5.6754
1 10.7984 15.2311 -3.22206
2 10.8233 17.0227 -2.47919
2 9.24064 14.3089 -2.44986
2 12.3663 14.2705 -2.56941
1 17.0063 13.2888 -5.60647
1 13.8833 13.3584 -5.67316
2 16.9862 15.0079 -4.92428
2 13.8587 15.0444 -5.02021
1 15.477 16.0411 -5.57391
1 16.9487 15.0785 -3.07035
1 13.9723 15.1128 -3.15924
2 17.0305 16.8542 -2.32113
2 13.8295 16.8223 -2.36541
2 15.5261 14.1953 -2.45258
1 1.60122 18.6698 -5.63178
2 1.57061 20.4692 -4.94808
1 1.47271 20.5327 -2.98439
2 3.15599 17.823 -4.91821
1 3.1487 17.8741 -2.99765
2 0.0664606 17.7653 -4.98001
2 0.0362476 19.543 -2.39359
1 0.011556 17.7189 -3.02522
2 3.08461 19.7007 -2.379
1 7.70406 18.7403 -5.64483
1 4.70442 18.6812 -5.63529
2 7.76959 20.4434 -5.06736
2 4.66328 20.525 -4.94681
1 7.68745 20.5018 -3.24713
1 4.63728 20.551 -3.12786
2 6.27205 17.8706 -4.94708
2 6.28189 19.5974 -2.51293
1 6.19864 17.88 -3.04488
1 10.791 18.7561 -5.74795
2 10.739 20.3884 -5.12743
1 10.8309 20.4605 -3.20409
2 9.27426 17.7783 -5.06361
1 9.21217 17.744 -3.26205
2 12.2362 17.6901 -5.04455
2 12.3563 19.6873 -2.46916
1 12.3791 17.8583 -3.0441
2 9.14902 19.5849 -2.58394
1 17.0887 18.6812 -5.68718
1 13.8287 18.6139 -5.61221
2 16.986 20.4784 -5.01498
1 16.9814 20.4528 -3.07089
2 13.7922 20.4236 -4.96714
1 13.8727 20.439 -3.01456
2 15.5667 17.8431 -4.95723
1 15.4809 17.7264 -3.06129
2 15.5267 19.4802 -2.45032
1 1.54434 0.830306 -0.381358
1 2.89804 3.62496 -0.546636
2 1.46025 2.69535 -0.0360034
1 18.3954 3.49079 -0.673493
2 3.11541 0.0245034 -0.179655
2 18.4853 21.2402 -0.10502
1 7.67023 1.03327 -0.572309
1 4.57228 0.930003 -0.654283
2 7.70981 2.72134 -0.394316
2 4.49471 2.67418 -0.172738
1 6.03519 3.61768 -0.492691
2 6.10845 0.0815623 -0.263622
1 10.7892 0.956515 -0.546122
1 9.18818 3.62789 -0.656156
2 10.6887 2.83885 -0.185514
1 12.253 3.56383 -0.566872
2 9.21372 0.0838273 -0.315634
2 12.3434 21.34 -0.121542
1 16.9993 0.738657 -0.544733
1 13.8472 0.867609 -0.511387
1 15.4025 3.58722 -0.542558
2 16.988 2.53886 -0.338649
2 13.8654 2.58168 -0.191978
2 15.3446 21.3022 0.11535
1 1.50017 6.27614 -0.572521
2 1.52903 8.04051 -0.260813
2 0.0377354 5.39783 -0.090975
2 3.03621 5.48029 -0.118612
1 7.71248 6.34041 -0.575571
1 4.6166 6.35452 -0.461278
2 7.60072 8.03396 -0.416244
2 4.58129 8.13404 -0.121814
2 6.1462 5.47141 -0.0740305
1 10.9296 6.2145 -0.49852
2 10.8041 8.05497 -0.201855
2 12.4245 5.26059 -0.0728827
2 9.27533 5.37227 -0.317204
1 16.927 6.31858 -0.403921
1 13.9003 6.16023 -0.605232
2 16.8891 8.07432 -0.146672
2 13.9173 7.93219 -0.360215
2 15.3955 5.3482 -0.0289658
1 1.53742 11.6018 -0.426513
1 0.0268772 8.92606 -0.366316
2 2.99718 10.6895 -0.0477226
1 2.98891 8.90693 -0.573759
2 0.0152655 10.7243 -0.510572
1 7.74614 11.6172 -0.463363
1 4.58665 11.6534 -0.61828
1 6.0736 9.015 -0.556542
2 6.20213 10.743 -0.235925
1 10.8392 11.5414 -0.441706
1 12.2547 8.86915 -0.676936
2 9.25691 10.6621 -0.200949
1 9.24239 8.92423 -0.498007
2 12.3676 10.5345 -0.450767
1 16.9275 11.4819 -0.629606
1 13.9002 11.4809 -0.591247
2 15.4521 10.6282 -0.253474
1 15.4392 8.86949 -0.688384
1 1.61411 16.9802 -0.537423
1 3.10631 14.2888 -0.58433
2 1.53802 13.3985 -0.128851
2 0.104484 15.9608 -0.163556
1 0.0706315 14.223 -0.607165
2 3.15631 16.0807 -0.337955
1 7.72504 16.8997 -0.563157
1 4.6789 16.9563 -0.456687
2 7.71973 13.3342 -0.0986167
2 4.5335 13.3766 -0.242872
2 6.25991 16.0275 -0.174248
1 6.22829 14.1827 -0.529419
1 10.8241 17.0029 -0.635406
1 9.31582 14.1882 -0.538933
2 10.9245 13.3653 -0.38018
2 12.3241 16.0791 -0.205962
1 12.4563 14.3047 -0.71294
2 9.28678 16.0659 -0.488825
1 17.035 16.8352 -0.287423
1 13.9101 16.95 -0.500151
1 15.4957 14.1558 -0.405522
2 17.0413 13.1723 -0.262897
2 13.899 13.2823 -0.309261
2 15.4948 16.0223 -0.106711
1 0.069364 19.4811 -0.195844
2 1.61 18.6557 -0.082095
1 3.14473 19.6524 -0.41416
1 6.22444 19.6488 -0.517579
2 7.7031 18.8149 -0.294038
2 4.61586 18.7671 -0.0221095
1 12.2844 19.6926 -0.502507
2 10.7285 18.8728 -0.225716
1 9.22282 19.6412 -0.745198
2 16.9936 18.6792 -0.211278
2 13.8035 18.6558 -0.392896
1 15.3797 19.5558 -0.483086
545
Atoms. Timestep: 100
3 1.54135 2.6697 -13.2143
4 3.08271 8.88179e-16 -15.1021
3 3.08271 8.88179e-16 -13.2143
4 0 0 -15.1021
4 0 1.7798 -12.5851
3 0 0 -13.2143
4 3.08271 1.7798 -12.5851
3 7.70676 2.6697 -13.2143
3 4.62405 2.6697 -13.2143
4 6.1654 0 -15.1021
4 6.1654 1.7798 -12.5851
3 6.1654 0 -13.2143
3 10.7895 2.6697 -13.2143
3 9.24811 0 -13.2143
4 12.3308 0 -15.1021
4 12.3308 1.7798 -12.5851
3 12.3308 0 -13.2143
4 9.24811 1.7798 -12.5851
3 16.9549 2.6697 -13.2143
4 13.8722 2.6697 -15.1021
3 13.8722 2.6697 -13.2143
4 15.4135 8.88179e-16 -15.1021
3 15.4135 0 -13.2143
4 15.4135 1.7798 -12.5851
3 1.54135 8.0091 -13.2143
3 0 5.3394 -13.2143
4 1.54135 4.44949 -12.5851
4 3.08271 7.11919 -12.5851
3 3.08271 5.3394 -13.2143
4 0 7.11919 -12.5851
3 7.70676 8.0091 -13.2143
3 4.62405 8.0091 -13.2143
3 6.1654 5.3394 -13.2143
4 7.70676 4.44949 -12.5851
4 4.62405 4.44949 -12.5851
4 6.1654 7.11919 -12.5851
3 10.7895 8.0091 -13.2143
3 12.3308 5.3394 -13.2143
4 10.7895 4.44949 -12.5851
4 9.24811 7.11919 -12.5851
3 9.24811 5.3394 -13.2143
4 12.3308 7.11919 -12.5851
3 16.9549 8.0091 -13.2143
3 13.8722 8.0091 -13.2143
4 16.9549 4.44949 -12.5851
4 13.8722 4.44949 -12.5851
4 15.4135 7.11919 -12.5851
3 15.4135 5.3394 -13.2143
4 3.08271 10.6788 -15.1021
3 3.08271 10.6788 -13.2143
4 0 10.6788 -15.1021
4 1.54135 9.78889 -12.5851
4 0 12.4586 -12.5851
3 0 10.6788 -13.2143
4 3.08271 12.4586 -12.5851
4 6.1654 10.6788 -15.1021
4 7.70676 9.78889 -12.5851
4 4.62405 9.78889 -12.5851
4 6.1654 12.4586 -12.5851
3 6.1654 10.6788 -13.2143
4 9.24811 10.6788 -15.1021
3 9.24811 10.6788 -13.2143
4 10.7895 9.78889 -12.5851
4 12.3308 12.4586 -12.5851
3 12.3308 10.6788 -13.2143
4 9.24811 12.4586 -12.5851
3 15.4135 10.6788 -13.2143
4 16.9549 9.78889 -12.5851
4 13.8722 9.78889 -12.5851
4 15.4135 12.4586 -12.5851
4 1.54135 13.3485 -15.1021
3 1.54135 13.3485 -13.2143
3 0 16.0182 -13.2143
4 1.54135 15.1283 -12.5851
3 3.08271 16.0182 -13.2143
4 7.70676 13.3485 -15.1021
3 7.70676 13.3485 -13.2143
3 4.62405 13.3485 -13.2143
3 6.1654 16.0182 -13.2143
4 7.70676 15.1283 -12.5851
4 4.62405 15.1283 -12.5851
3 10.7895 13.3485 -13.2143
3 12.3308 16.0182 -13.2143
4 10.7895 15.1283 -12.5851
3 9.24811 16.0182 -13.2143
3 16.9549 13.3485 -13.2143
3 13.8722 13.3485 -13.2143
4 16.9549 15.1283 -12.5851
4 13.8722 15.1283 -12.5851
3 15.4135 16.0182 -13.2143
3 1.54135 18.6879 -13.2143
4 1.54135 20.4677 -12.5851
4 3.08271 17.798 -12.5851
4 0 17.798 -12.5851
3 7.70676 18.6879 -13.2143
3 4.62405 18.6879 -13.2143
4 7.70676 20.4677 -12.5851
4 4.62405 20.4677 -12.5851
4 6.1654 17.798 -12.5851
3 10.7895 18.6879 -13.2143
4 10.7895 20.4677 -12.5851
4 9.24811 17.798 -12.5851
4 12.3308 17.798 -12.5851
3 16.9549 18.6879 -13.2143
3 13.8722 18.6879 -13.2143
4 16.9549 20.4677 -12.5851
4 13.8722 20.4677 -12.5851
4 15.4135 17.798 -12.5851
4 0 0 -7.55105
4 3.08271 0 -7.55105
3 0 3.55961 -8.18029
4 1.54135 2.6697 -7.55105
4 0 3.55961 -10.0681
3 0 1.7798 -10.6973
4 1.54135 0.8899 -10.0681
4 3.08271 3.55961 -10.0681
3 3.08271 1.7798 -10.6973
3 1.54135 0.8899 -8.18029
3 3.08271 3.55961 -8.18029
4 6.1654 0 -7.55105
3 6.1654 3.55961 -8.18029
4 4.62405 2.6697 -7.55105
4 7.70676 2.6697 -7.55105
3 6.1654 1.7798 -10.6973
4 7.70676 0.8899 -10.0681
3 7.70676 0.8899 -8.18029
4 4.62405 0.8899 -10.0681
3 4.62405 0.8899 -8.18029
4 6.1654 3.55961 -10.0681
4 12.3308 4.44088e-16 -7.55105
4 9.24811 4.44088e-16 -7.55105
3 12.3308 1.7798 -10.6973
4 10.7895 0.8899 -10.0681
4 9.24811 3.55961 -10.0681
3 9.24811 1.7798 -10.6973
3 10.7895 0.8899 -8.18029
3 9.24811 3.55961 -8.18029
4 12.3308 3.55961 -10.0681
4 10.7895 2.6697 -7.55105
3 12.3308 3.55961 -8.18029
4 15.4135 0 -7.55105
4 16.9549 0.8899 -10.0681
4 13.8722 0.8899 -10.0681
4 15.4135 3.55961 -10.0681
3 15.4135 1.7798 -10.6973
3 16.9549 0.8899 -8.18029
3 13.8722 0.8899 -8.18029
3 15.4135 3.55961 -8.18029
4 16.9549 2.6697 -7.55105
4 13.8722 2.6697 -7.55105
4 3.08271 5.3394 -7.55105
4 0 5.3394 -7.55105
3 1.54135 4.44949 -10.6973
3 3.08271 7.11919 -10.6973
4 1.54135 6.2293 -10.0681
3 0 7.11919 -10.6973
3 1.54135 6.2293 -8.18029
4 1.54135 8.0091 -7.55105
4 6.1654 5.3394 -7.55105
3 7.70676 4.44949 -10.6973
3 4.62405 4.44949 -10.6973
4 7.70676 6.2293 -10.0681
4 4.62405 6.2293 -10.0681
3 6.1654 7.11919 -10.6973
3 7.70676 6.2293 -8.18029
3 4.62405 6.2293 -8.18029
4 7.70676 8.0091 -7.55105
4 4.62405 8.0091 -7.55105
4 9.24811 5.3394 -7.55105
3 10.7895 4.44949 -10.6973
3 9.24811 7.11919 -10.6973
4 10.7895 6.2293 -10.0681
3 12.3308 7.11919 -10.6973
3 10.7895 6.2293 -8.18029
4 10.7895 8.0091 -7.55105
4 12.3308 5.3394 -7.55105
3 16.9549 4.44949 -10.6973
3 13.8722 4.44949 -10.6973
3 15.4135 7.11919 -10.6973
4 16.9549 6.2293 -10.0681
3 16.9549 6.2293 -8.18029
4 13.8722 6.2293 -10.0681
3 13.8722 6.2293 -8.18029
4 16.9549 8.0091 -7.55105
4 13.8722 8.0091 -7.55105
4 15.4135 5.3394 -7.55105
3 1.54135 9.78889 -10.6973
3 0 12.4586 -10.6973
4 1.54135 11.5687 -10.0681
3 3.08271 12.4586 -10.6973
3 1.54135 11.5687 -8.18029
4 0 8.899 -10.0681
3 0 8.899 -8.18029
4 3.08271 8.899 -10.0681
4 3.08271 10.6788 -7.55105
3 3.08271 8.899 -8.18029
4 0 10.6788 -7.55105
3 7.70676 9.78889 -10.6973
3 4.62405 9.78889 -10.6973
3 6.1654 12.4586 -10.6973
4 7.70676 11.5687 -10.0681
3 7.70676 11.5687 -8.18029
4 4.62405 11.5687 -10.0681
3 4.62405 11.5687 -8.18029
4 6.1654 8.899 -10.0681
3 6.1654 8.899 -8.18029
4 6.1654 10.6788 -7.55105
3 10.7895 9.78889 -10.6973
3 12.3308 12.4586 -10.6973
4 10.7895 11.5687 -10.0681
3 9.24811 12.4586 -10.6973
3 10.7895 11.5687 -8.18029
4 12.3308 8.899 -10.0681
3 12.3308 8.899 -8.18029
4 9.24811 8.899 -10.0681
4 9.24811 10.6788 -7.55105
3 9.24811 8.899 -8.18029
4 12.3308 10.6788 -7.55105
3 16.9549 9.78889 -10.6973
3 13.8722 9.78889 -10.6973
4 16.9549 11.5687 -10.0681
4 13.8722 11.5687 -10.0681
3 15.4135 12.4586 -10.6973
3 16.9549 11.5687 -8.18029
3 13.8722 11.5687 -8.18029
4 15.4135 8.899 -10.0681
4 15.4135 10.6788 -7.55105
3 15.4135 8.899 -8.18029
3 1.54135 15.1283 -10.6973
4 1.54135 16.9081 -10.0681
3 1.54135 16.9081 -8.18029
4 3.08271 14.2384 -10.0681
3 3.08271 14.2384 -8.18029
4 0 14.2384 -10.0681
4 1.54135 13.3485 -7.55105
4 0 16.0182 -7.55105
3 0 14.2384 -8.18029
4 3.08271 16.0182 -7.55105
2 6.11251 15.944 -7.51891
3 7.70676 15.1283 -10.6973
3 4.62405 15.1283 -10.6973
4 7.70676 16.9081 -10.0681
4 4.62405 16.9081 -10.0681
3 7.70676 16.9081 -8.18029
3 4.62405 16.9081 -8.18029
4 6.1654 14.2384 -10.0681
4 7.70676 13.3485 -7.55105
4 4.62405 13.3485 -7.55105
3 6.1654 14.2384 -8.18029
3 10.7895 15.1283 -10.6973
4 10.7895 16.9081 -10.0681
3 10.7895 16.9081 -8.18029
4 9.24811 14.2384 -10.0681
3 9.24811 14.2384 -8.18029
4 12.3308 14.2384 -10.0681
4 10.7895 13.3485 -7.55105
4 12.3308 16.0182 -7.55105
3 12.3308 14.2384 -8.18029
4 9.24811 16.0182 -7.55105
2 15.4856 16.0105 -7.48427
3 16.9549 15.1283 -10.6973
3 13.8722 15.1283 -10.6973
4 16.9549 16.9081 -10.0681
3 16.9549 16.9081 -8.18029
4 13.8722 16.9081 -10.0681
3 13.8722 16.9081 -8.18029
4 15.4135 14.2384 -10.0681
3 15.4135 14.2384 -8.18029
4 16.9549 13.3485 -7.55105
4 13.8722 13.3485 -7.55105
3 1.54135 20.4677 -10.6973
3 3.08271 17.798 -10.6973
4 0 19.5778 -10.0681
3 0 17.798 -10.6973
3 0 19.5778 -8.18029
4 3.08271 19.5778 -10.0681
4 1.54135 18.6879 -7.55105
3 3.08271 19.5778 -8.18029
3 7.70676 20.4677 -10.6973
3 4.62405 20.4677 -10.6973
4 6.1654 19.5778 -10.0681
3 6.1654 17.798 -10.6973
3 6.1654 19.5778 -8.18029
4 7.70676 18.6879 -7.55105
4 4.62405 18.6879 -7.55105
3 10.7895 20.4677 -10.6973
3 9.24811 17.798 -10.6973
4 12.3308 19.5778 -10.0681
3 12.3308 17.798 -10.6973
3 12.3308 19.5778 -8.18029
4 9.24811 19.5778 -10.0681
4 10.7895 18.6879 -7.55105
3 9.24811 19.5778 -8.18029
2 16.9587 18.7319 -7.52166
3 16.9549 20.4677 -10.6973
3 13.8722 20.4677 -10.6973
3 15.4135 17.798 -10.6973
4 15.4135 19.5778 -10.0681
4 13.8722 18.6879 -7.55105
3 15.4135 19.5778 -8.18029
1 1.47927 2.67311 -5.71729
2 18.4217 1.90361 -5.22038
1 0.12095 0.0536673 -5.62424
2 2.94432 1.86897 -5.0026
2 1.5868 0.838219 -2.41567
2 2.98653 3.6661 -2.53994
1 2.86385 1.84904 -3.19078
2 18.6567 3.56446 -2.46905
2 6.13088 1.58536 -4.93073
1 6.27759 -0.019897 -5.66684
2 7.75366 1.10388 -2.46353
2 4.43128 0.914619 -2.43384
2 6.0549 3.7433 -2.43946
1 10.7569 2.57837 -5.56069
2 12.3609 1.6597 -5.33232
1 12.2671 21.4153 -5.70811
2 11.1546 2.49496 -3.05696
2 12.0551 3.54708 -2.32292
1 16.8837 2.52249 -5.69146
1 13.9029 2.65553 -5.69657
2 15.3185 1.89006 -4.93545
2 16.7922 0.748973 -2.37057
2 14.001 0.922336 -2.38243
2 15.3369 3.57149 -2.40708
1 15.5141 1.795 -3.07553
1 1.52205 8.12029 -5.62214
2 1.61142 4.31978 -4.99648
2 3.04762 7.23027 -4.974
1 3.02991 5.35243 -5.5781
1 1.49332 4.57716 -3.16496
2 -0.0618585 7.28112 -4.84082
2 1.35283 6.21438 -2.44711
1 18.5755 7.16724 -3.07873
1 4.81506 8.09645 -5.56876
1 6.29057 5.30239 -5.69668
2 7.74548 4.29013 -4.82054
2 4.71079 4.64913 -4.86823
1 4.50322 4.52518 -3.02831
2 6.16546 7.04308 -5.0302
2 7.57165 6.3123 -2.37741
2 4.70461 6.19946 -2.45946
1 6.1602 7.18329 -3.03866
1 10.8415 8.0642 -5.62234
1 12.3358 5.40993 -5.6395
2 10.8361 4.21063 -5.13732
2 9.30028 7.05765 -4.97342
1 9.116 7.16295 -3.16342
2 12.2251 7.1206 -4.92671
2 10.8521 6.30208 -2.55395
1 12.3599 7.05349 -3.2064
1 16.8617 8.06326 -5.74495
2 13.8968 4.53009 -4.94617
2 15.4221 7.2099 -4.90937
1 13.7793 4.4314 -3.19551
1 15.4775 7.06456 -3.18316
2 16.9533 6.38286 -2.29291
2 13.9659 6.16648 -2.64283
1 3.15605 10.7078 -5.60337
2 1.66762 9.78575 -4.98219
2 0.0483862 12.4723 -5.11827
1 -0.0483704 12.4192 -3.19304
2 3.0664 12.3803 -4.98519
2 1.6322 11.6238 -2.48204
1 3.13118 12.5685 -3.11914
2 3.22475 8.63675 -2.62971
2 7.74784 9.91528 -4.89929
2 4.65225 9.82699 -4.84461
2 6.09914 12.441 -4.86636
1 7.72577 9.86951 -3.08159
1 4.63448 9.86737 -3.05348
1 6.12714 12.5026 -3.14877
2 7.68468 11.5154 -2.50914
2 4.59235 11.6898 -2.45684
2 6.15679 8.97185 -2.42254
1 9.19352 10.7271 -5.61331
2 10.8956 9.84759 -5.05738
2 12.421 12.3471 -5.11918
1 12.3212 10.6402 -5.67267
1 10.8924 9.85458 -3.21144
1 12.4789 12.5706 -3.21383
2 9.31331 12.3091 -4.92961
2 10.898 11.7347 -2.56239
1 9.36044 12.5286 -3.22937
2 12.344 8.99403 -2.61656
2 9.2227 9.02196 -2.40935
1 15.432 10.7661 -5.70835
2 16.7801 9.66065 -4.97759
2 13.9473 9.927 -5.35188
2 15.1913 12.4371 -5.18415
2 16.945 11.457 -2.51904
2 13.7186 11.5565 -2.40457
2 15.354 8.89139 -2.47609
1 1.50934 13.2993 -5.67477
2 1.54479 15.0683 -5.42445
1 3.06303 16.1529 -5.56663
2 1.38017 17.1241 -2.34313
2 3.13294 14.2154 -2.44411
2 0.109439 14.084 -2.53745
1 4.6266 13.4704 -5.57464
1 6.20525 16.08 -5.64279
2 7.65805 15.1585 -4.95867
1 7.58253 15.0922 -3.23314
2 4.63859 15.151 -5.06005
2 7.93642 16.7539 -2.50512
2 6.36576 14.0777 -2.49457
2 10.7152 15.0736 -5.24014
1 9.16244 15.8331 -5.61537
2 10.6198 17.0808 -2.39881
2 9.20725 14.2519 -2.51049
2 12.2517 14.1702 -2.52205
1 13.8439 13.3092 -5.76601
2 17.0104 14.922 -5.03894
2 14.1322 14.9157 -5.0361
1 15.5186 15.9907 -5.60194
1 17.0513 15.062 -3.13321
2 17.233 16.654 -2.37778
2 14.2144 16.4469 -2.19306
2 15.5316 14.1719 -2.35625
2 1.52919 20.409 -4.83636
1 1.52324 20.5314 -3.01838
2 3.29537 17.8092 -4.95492
2 -0.0870383 17.6948 -5.01127
2 -0.0492358 19.6394 -2.29921
1 -0.0276021 17.7871 -3.17029
2 3.039 19.6899 -2.39634
1 7.73708 18.6606 -5.65048
1 4.66813 18.6882 -5.53566
2 7.60515 20.3068 -5.23279
2 4.89866 20.4189 -4.94727
1 4.63465 20.6147 -3.09312
2 6.14197 17.7343 -4.97422
1 10.7971 18.7009 -5.71821
2 10.802 20.4261 -5.10574
2 9.16529 17.7036 -5.11922
1 9.3218 17.7793 -3.25101
2 12.1136 17.4833 -5.30975
2 12.2603 19.7439 -2.23537
2 9.18538 19.5515 -2.50516
1 16.973 18.7448 -5.65363
1 13.8493 18.6259 -5.48924
2 17.0981 20.543 -5.03014
1 17.0029 20.5185 -3.11819
2 13.5535 20.3439 -4.93676
1 13.8985 20.3565 -2.99808
2 15.5336 17.834 -5.04992
2 15.4306 19.6029 -2.48943
1 1.48409 0.868536 -0.497181
1 3.04442 3.62599 -0.570731
2 1.52014 2.65318 -0.142868
1 18.4609 3.4481 -0.580387
2 3.12621 0.153278 -0.0596895
2 18.5171 21.2736 -0.209259
1 7.68917 1.05132 -0.710003
1 4.50743 1.03327 -0.663412
2 7.65346 2.86219 -0.530257
2 4.44965 2.74347 -0.0865167
1 6.16839 3.67717 -0.504958
2 6.09328 0.185801 -0.302535
1 10.6726 0.986318 -0.431345
1 9.24732 3.62744 -0.614729
2 10.6695 2.70425 -0.100367
1 12.2939 3.52755 -0.455559
2 9.22947 0.168633 -0.252201
2 12.268 21.3414 -0.329456
1 16.9326 0.788297 -0.488969
1 13.8768 0.786447 -0.407868
1 15.4301 3.50211 -0.620891
2 16.9185 2.66472 -0.254739
2 13.8304 2.58504 -0.0631586
2 15.3859 21.2179 0.12504
1 1.51571 6.29271 -0.592445
2 1.48869 7.98263 -0.379293
2 -0.0878149 5.28674 -0.126577
2 3.12825 5.3859 -0.267862
1 7.77017 6.3339 -0.643563
1 4.62262 6.34076 -0.514872
2 7.70363 8.15329 -0.314
2 4.6528 8.01183 -0.17397
2 6.19996 5.39302 -0.260345
1 10.7867 6.16961 -0.526514
2 10.8196 7.95105 -0.27195
2 12.3276 5.30808 -0.0170964
2 9.21507 5.34596 -0.454468
1 16.9752 6.19899 -0.496812
1 13.897 6.20637 -0.509274
2 16.9424 8.0449 -0.202278
2 13.9195 8.04473 -0.44568
2 15.4241 5.37571 -0.118097
1 1.61047 11.587 -0.488351
1 -0.0690069 8.88015 -0.327849
2 3.19146 10.7019 -0.0621149
1 3.04155 8.90626 -0.675569
2 0.0282389 10.6536 -0.340145
1 7.74315 11.5586 -0.571609
1 4.6587 11.5798 -0.50239
1 6.1747 8.91278 -0.607838
2 6.07049 10.7032 -0.100107
1 10.8869 11.5603 -0.528577
1 12.3208 8.85609 -0.756487
2 9.30181 10.6939 -0.123906
1 9.25512 8.98074 -0.53877
2 12.4328 10.6602 -0.248339
1 16.9405 11.4799 -0.573629
1 13.9182 11.4841 -0.713781
2 15.3504 10.591 -0.373583
1 15.4353 8.85993 -0.753546
1 1.55533 16.8603 -0.535299
1 3.09866 14.2241 -0.585187
2 1.64016 13.3078 -0.0665627
2 0.0644167 16.0439 -0.108668
1 0.0705506 14.1611 -0.524155
2 3.12762 16.0276 -0.449467
1 7.71159 16.9374 -0.548912
1 4.66596 16.9568 -0.490951
2 7.74716 13.2864 -0.104735
2 4.67155 13.3824 -0.288506
2 6.17064 16.013 -0.373285
1 6.14945 14.2204 -0.450658
1 10.834 16.987 -0.621401
1 9.29363 14.1907 -0.558476
2 10.8682 13.37 -0.304767
2 12.4305 16.0544 -0.196451
1 12.43 14.2241 -0.6998
2 9.34706 16.036 -0.325725
1 16.937 16.869 -0.224093
1 13.884 16.9453 -0.556818
1 15.4983 14.226 -0.346009
2 17.0375 13.3603 -0.35494
2 13.8841 13.3434 -0.192902
2 15.4041 15.9992 -0.116144
1 0.0250936 19.5805 -0.273363
2 1.5456 18.7193 -0.238366
1 3.0791 19.6474 -0.349205
1 6.17424 19.6772 -0.512936
2 7.71564 18.7947 -0.222514
2 4.65503 18.8065 -0.23118
1 12.2711 19.5383 -0.554288
2 10.6657 18.8525 -0.157505
1 9.20937 19.7487 -0.768123
2 16.9757 18.6509 -0.256199
2 13.8235 18.748 -0.193917
1 15.3734 19.5685 -0.515503