588
Atoms. Timestep: 0
C 1.54135 2.6697 -13.2143
Si 3.08271 8.88179e-16 -15.1021
C 3.08271 8.88179e-16 -13.2143
Si 0 0 -15.1021
Si 0 1.7798 -12.5851
C 0 0 -13.2143
Si 3.08271 1.7798 -12.5851
C 7.70676 2.6697 -13.2143
C 4.62405 2.6697 -13.2143
Si 6.1654 0 -15.1021
Si 6.1654 1.7798 -12.5851
C 6.1654 0 -13.2143
C 10.7895 2.6697 -13.2143
C 9.24811 0 -13.2143
Si 12.3308 0 -15.1021
Si 12.3308 1.7798 -12.5851
C 12.3308 0 -13.2143
Si 9.24811 1.7798 -12.5851
C 16.9549 2.6697 -13.2143
Si 13.8722 2.6697 -15.1021
C 13.8722 2.6697 -13.2143
Si 15.4135 8.88179e-16 -15.1021
C 15.4135 0 -13.2143
Si 15.4135 1.7798 -12.5851
C 1.54135 8.0091 -13.2143
C 0 5.3394 -13.2143
Si 1.54135 4.44949 -12.5851
Si 3.08271 7.11919 -12.5851
C 3.08271 5.3394 -13.2143
Si 0 7.11919 -12.5851
C 7.70676 8.0091 -13.2143
C 4.62405 8.0091 -13.2143
C 6.1654 5.3394 -13.2143
Si 7.70676 4.44949 -12.5851
Si 4.62405 4.44949 -12.5851
Si 6.1654 7.11919 -12.5851
C 10.7895 8.0091 -13.2143
C 12.3308 5.3394 -13.2143
Si 10.7895 4.44949 -12.5851
Si 9.24811 7.11919 -12.5851
C 9.24811 5.3394 -13.2143
Si 12.3308 7.11919 -12.5851
C 16.9549 8.0091 -13.2143
C 13.8722 8.0091 -13.2143
Si 16.9549 4.44949 -12.5851
Si 13.8722 4.44949 -12.5851
Si 15.4135 7.11919 -12.5851
C 15.4135 5.3394 -13.2143
Si 3.08271 10.6788 -15.1021
C 3.08271 10.6788 -13.2143
Si 0 10.6788 -15.1021
Si 1.54135 9.78889 -12.5851
Si 0 12.4586 -12.5851
C 0 10.6788 -13.2143
Si 3.08271 12.4586 -12.5851
Si 6.1654 10.6788 -15.1021
Si 7.70676 9.78889 -12.5851
Si 4.62405 9.78889 -12.5851
Si 6.1654 12.4586 -12.5851
C 6.1654 10.6788 -13.2143
Si 9.24811 10.6788 -15.1021
C 9.24811 10.6788 -13.2143
Si 10.7895 9.78889 -12.5851
Si 12.3308 12.4586 -12.5851
C 12.3308 10.6788 -13.2143
Si 9.24811 12.4586 -12.5851
C 15.4135 10.6788 -13.2143
Si 16.9549 9.78889 -12.5851
Si 13.8722 9.78889 -12.5851
Si 15.4135 12.4586 -12.5851
Si 1.54135 13.3485 -15.1021
C 1.54135 13.3485 -13.2143
C 0 16.0182 -13.2143
Si 1.54135 15.1283 -12.5851
C 3.08271 16.0182 -13.2143
Si 7.70676 13.3485 -15.1021
C 7.70676 13.3485 -13.2143
C 4.62405 13.3485 -13.2143
C 6.1654 16.0182 -13.2143
Si 7.70676 15.1283 -12.5851
Si 4.62405 15.1283 -12.5851
C 10.7895 13.3485 -13.2143
C 12.3308 16.0182 -13.2143
Si 10.7895 15.1283 -12.5851
C 9.24811 16.0182 -13.2143
C 16.9549 13.3485 -13.2143
C 13.8722 13.3485 -13.2143
Si 16.9549 15.1283 -12.5851
Si 13.8722 15.1283 -12.5851
C 15.4135 16.0182 -13.2143
C 1.54135 18.6879 -13.2143
Si 1.54135 20.4677 -12.5851
Si 3.08271 17.798 -12.5851
Si 0 17.798 -12.5851
C 7.70676 18.6879 -13.2143
C 4.62405 18.6879 -13.2143
Si 7.70676 20.4677 -12.5851
Si 4.62405 20.4677 -12.5851
Si 6.1654 17.798 -12.5851
C 10.7895 18.6879 -13.2143
Si 10.7895 20.4677 -12.5851
Si 9.24811 17.798 -12.5851
Si 12.3308 17.798 -12.5851
C 16.9549 18.6879 -13.2143
C 13.8722 18.6879 -13.2143
Si 16.9549 20.4677 -12.5851
Si 13.8722 20.4677 -12.5851
Si 15.4135 17.798 -12.5851
Si 0 0 -7.55105
Si 3.08271 0 -7.55105
C 0 3.55961 -8.18029
Si 1.54135 2.6697 -7.55105
Si 0 3.55961 -10.0681
C 0 1.7798 -10.6973
Si 1.54135 0.8899 -10.0681
Si 3.08271 3.55961 -10.0681
C 3.08271 1.7798 -10.6973
C 1.54135 0.8899 -8.18029
C 3.08271 3.55961 -8.18029
Si 6.1654 0 -7.55105
C 6.1654 3.55961 -8.18029
Si 4.62405 2.6697 -7.55105
Si 7.70676 2.6697 -7.55105
C 6.1654 1.7798 -10.6973
Si 7.70676 0.8899 -10.0681
C 7.70676 0.8899 -8.18029
Si 4.62405 0.8899 -10.0681
C 4.62405 0.8899 -8.18029
Si 6.1654 3.55961 -10.0681
Si 12.3308 4.44088e-16 -7.55105
Si 9.24811 4.44088e-16 -7.55105
C 12.3308 1.7798 -10.6973
Si 10.7895 0.8899 -10.0681
Si 9.24811 3.55961 -10.0681
C 9.24811 1.7798 -10.6973
C 10.7895 0.8899 -8.18029
C 9.24811 3.55961 -8.18029
Si 12.3308 3.55961 -10.0681
Si 10.7895 2.6697 -7.55105
C 12.3308 3.55961 -8.18029
Si 15.4135 0 -7.55105
Si 16.9549 0.8899 -10.0681
Si 13.8722 0.8899 -10.0681
Si 15.4135 3.55961 -10.0681
C 15.4135 1.7798 -10.6973
C 16.9549 0.8899 -8.18029
C 13.8722 0.8899 -8.18029
C 15.4135 3.55961 -8.18029
Si 16.9549 2.6697 -7.55105
Si 13.8722 2.6697 -7.55105
Si 3.08271 5.3394 -7.55105
Si 0 5.3394 -7.55105
C 1.54135 4.44949 -10.6973
C 3.08271 7.11919 -10.6973
Si 1.54135 6.2293 -10.0681
C 0 7.11919 -10.6973
C 1.54135 6.2293 -8.18029
Si 1.54135 8.0091 -7.55105
Si 6.1654 5.3394 -7.55105
C 7.70676 4.44949 -10.6973
C 4.62405 4.44949 -10.6973
Si 7.70676 6.2293 -10.0681
Si 4.62405 6.2293 -10.0681
C 6.1654 7.11919 -10.6973
C 7.70676 6.2293 -8.18029
C 4.62405 6.2293 -8.18029
Si 7.70676 8.0091 -7.55105
Si 4.62405 8.0091 -7.55105
Si 9.24811 5.3394 -7.55105
C 10.7895 4.44949 -10.6973
C 9.24811 7.11919 -10.6973
Si 10.7895 6.2293 -10.0681
C 12.3308 7.11919 -10.6973
C 10.7895 6.2293 -8.18029
Si 10.7895 8.0091 -7.55105
Si 12.3308 5.3394 -7.55105
C 16.9549 4.44949 -10.6973
C 13.8722 4.44949 -10.6973
C 15.4135 7.11919 -10.6973
Si 16.9549 6.2293 -10.0681
C 16.9549 6.2293 -8.18029
Si 13.8722 6.2293 -10.0681
C 13.8722 6.2293 -8.18029
Si 16.9549 8.0091 -7.55105
Si 13.8722 8.0091 -7.55105
Si 15.4135 5.3394 -7.55105
C 1.54135 9.78889 -10.6973
C 0 12.4586 -10.6973
Si 1.54135 11.5687 -10.0681
C 3.08271 12.4586 -10.6973
C 1.54135 11.5687 -8.18029
Si 0 8.899 -10.0681
C 0 8.899 -8.18029
Si 3.08271 8.899 -10.0681
Si 3.08271 10.6788 -7.55105
C 3.08271 8.899 -8.18029
Si 0 10.6788 -7.55105
C 7.70676 9.78889 -10.6973
C 4.62405 9.78889 -10.6973
C 6.1654 12.4586 -10.6973
Si 7.70676 11.5687 -10.0681
C 7.70676 11.5687 -8.18029
Si 4.62405 11.5687 -10.0681
C 4.62405 11.5687 -8.18029
Si 6.1654 8.899 -10.0681
C 6.1654 8.899 -8.18029
Si 6.1654 10.6788 -7.55105
C 10.7895 9.78889 -10.6973
C 12.3308 12.4586 -10.6973
Si 10.7895 11.5687 -10.0681
C 9.24811 12.4586 -10.6973
C 10.7895 11.5687 -8.18029
Si 12.3308 8.899 -10.0681
C 12.3308 8.899 -8.18029
Si 9.24811 8.899 -10.0681
Si 9.24811 10.6788 -7.55105
C 9.24811 8.899 -8.18029
Si 12.3308 10.6788 -7.55105
C 16.9549 9.78889 -10.6973
C 13.8722 9.78889 -10.6973
Si 16.9549 11.5687 -10.0681
Si 13.8722 11.5687 -10.0681
C 15.4135 12.4586 -10.6973
C 16.9549 11.5687 -8.18029
C 13.8722 11.5687 -8.18029
Si 15.4135 8.899 -10.0681
Si 15.4135 10.6788 -7.55105
C 15.4135 8.899 -8.18029
C 1.54135 15.1283 -10.6973
Si 1.54135 16.9081 -10.0681
C 1.54135 16.9081 -8.18029
Si 3.08271 14.2384 -10.0681
C 3.08271 14.2384 -8.18029
Si 0 14.2384 -10.0681
Si 1.54135 13.3485 -7.55105
Si 0 16.0182 -7.55105
C 0 14.2384 -8.18029
Si 3.08271 16.0182 -7.55105
Si 6.12443 15.9406 -7.57397
C 7.70676 15.1283 -10.6973
C 4.62405 15.1283 -10.6973
Si 7.70676 16.9081 -10.0681
Si 4.62405 16.9081 -10.0681
C 7.70676 16.9081 -8.18029
C 4.62405 16.9081 -8.18029
Si 6.1654 14.2384 -10.0681
Si 7.70676 13.3485 -7.55105
Si 4.62405 13.3485 -7.55105
C 6.1654 14.2384 -8.18029
C 10.7895 15.1283 -10.6973
Si 10.7895 16.9081 -10.0681
C 10.7895 16.9081 -8.18029
Si 9.24811 14.2384 -10.0681
C 9.24811 14.2384 -8.18029
Si 12.3308 14.2384 -10.0681
Si 10.7895 13.3485 -7.55105
Si 12.3308 16.0182 -7.55105
C 12.3308 14.2384 -8.18029
Si 9.24811 16.0182 -7.55105
Si 15.4095 16.0334 -7.49426
C 16.9549 15.1283 -10.6973
C 13.8722 15.1283 -10.6973
Si 16.9549 16.9081 -10.0681
C 16.9549 16.9081 -8.18029
Si 13.8722 16.9081 -10.0681
C 13.8722 16.9081 -8.18029
Si 15.4135 14.2384 -10.0681
C 15.4135 14.2384 -8.18029
Si 16.9549 13.3485 -7.55105
Si 13.8722 13.3485 -7.55105
C 1.54135 20.4677 -10.6973
C 3.08271 17.798 -10.6973
Si 0 19.5778 -10.0681
C 0 17.798 -10.6973
C 0 19.5778 -8.18029
Si 3.08271 19.5778 -10.0681
Si 1.54135 18.6879 -7.55105
C 3.08271 19.5778 -8.18029
C 7.70676 20.4677 -10.6973
C 4.62405 20.4677 -10.6973
Si 6.1654 19.5778 -10.0681
C 6.1654 17.798 -10.6973
C 6.1654 19.5778 -8.18029
Si 7.70676 18.6879 -7.55105
Si 4.62405 18.6879 -7.55105
C 10.7895 20.4677 -10.6973
C 9.24811 17.798 -10.6973
Si 12.3308 19.5778 -10.0681
C 12.3308 17.798 -10.6973
C 12.3308 19.5778 -8.18029
Si 9.24811 19.5778 -10.0681
Si 10.7895 18.6879 -7.55105
C 9.24811 19.5778 -8.18029
Si 16.9964 18.6537 -7.55437
C 16.9549 20.4677 -10.6973
C 13.8722 20.4677 -10.6973
C 15.4135 17.798 -10.6973
Si 15.4135 19.5778 -10.0681
Si 13.8722 18.6879 -7.55105
C 15.4135 19.5778 -8.18029
C 1.43614 2.70026 -5.67748
C 3.10995 21.3386 -5.58696
Si 18.4705 1.81179 -4.92902
C 0.0234839 21.2541 -5.60366
C 0.0457683 1.78584 -2.9624
Si 3.06536 1.74132 -5.08261
Si 1.48275 0.860924 -2.4074
Si 3.04548 3.56138 -2.49647
C 3.09788 1.75528 -3.14673
Si 18.4676 3.6095 -2.38686
C 7.76399 2.52357 -5.45328
C 4.52197 2.73012 -5.62617
Si 6.17082 1.65217 -4.95542
C 6.1617 21.2982 -5.78906
C 6.12471 1.79065 -3.07035
Si 7.71416 0.89512 -2.51541
Si 4.50818 0.916905 -2.37677
Si 6.16065 3.51843 -2.47342
C 10.8543 2.62886 -5.63511
C 9.26683 21.3389 -5.69482
Si 12.4597 1.70411 -4.99097
C 12.3743 21.3167 -5.69237
C 12.3271 1.74789 -3.16803
Si 9.27665 1.6667 -4.93156
Si 10.8467 0.876761 -2.51097
Si 9.24942 3.5765 -2.52803
C 9.36297 1.69918 -3.10046
Si 12.3757 3.5145 -2.49179
C 16.9778 2.68875 -5.60783
C 14.0125 2.64935 -5.63653
C 15.4255 0.0033821 -5.70953
Si 15.4686 1.74425 -4.92464
Si 16.862 0.911209 -2.37647
Si 13.8457 0.838945 -2.37429
Si 15.46 3.56433 -2.38513
C 15.3925 1.78984 -3.129
C 1.58671 7.94353 -5.55114
C 0.00598989 5.38216 -5.56138
Si 1.47709 4.48433 -4.9132
Si 3.10453 6.98197 -4.99659
C 3.04261 5.2664 -5.67661
C 1.46395 4.46425 -3.02625
C 3.17225 6.99811 -3.10119
Si 0.0493486 7.1936 -4.99831
Si 1.57215 6.23778 -2.4611
C 0.0844937 7.12481 -3.0293
C 7.71017 7.8587 -5.69065
C 4.58993 7.88986 -5.68271
C 6.10425 5.32182 -5.62882
Si 7.67628 4.35522 -4.93192
C 7.64142 4.55337 -3.18434
Si 4.59803 4.43399 -5.01359
C 4.63948 4.51359 -3.06047
Si 6.174 7.04162 -4.99309
Si 7.6424 6.20652 -2.4398
Si 4.66066 6.22928 -2.4778
C 6.18377 7.04636 -3.10001
C 10.8317 8.0456 -5.68624
C 12.3381 5.3146 -5.62538
Si 10.8035 4.48364 -5.0386
Si 9.2711 7.1709 -4.96953
C 9.2212 5.32334 -5.66465
C 10.7363 4.48546 -3.18364
C 9.1287 7.08028 -2.97828
Si 12.2544 7.07765 -5.00097
Si 10.6611 6.1899 -2.51169
C 12.1876 7.10245 -3.10677
C 16.9781 8.07644 -5.59998
C 13.7961 8.13769 -5.56709
Si 16.8973 4.50162 -5.0106
Si 13.9176 4.44599 -4.94971
Si 15.4745 7.19518 -5.01335
C 15.5065 5.47406 -5.71243
C 16.9215 4.47115 -3.08207
C 13.964 4.36329 -3.04383
C 15.4074 7.16257 -3.0097
Si 16.9367 6.27576 -2.5303
Si 13.9234 6.14522 -2.49553
C 3.06127 10.7039 -5.67929
Si 1.5484 9.77007 -5.04316
Si 18.4719 12.4684 -5.02592
C 18.4774 10.7909 -5.64474
C 1.61239 9.7009 -3.05968
C 18.4951 12.3786 -3.19056
Si 3.02533 12.4499 -4.98949
Si 1.60015 11.5219 -2.47759
C 3.14167 12.3486 -3.08373
Si 0.0269706 8.94035 -2.37719
Si 3.0941 8.85953 -2.4833
Si 7.68692 9.7994 -5.01362
Si 4.591 9.66642 -5.01879
Si 6.15184 12.4094 -5.04757
C 6.17396 10.5967 -5.74559
C 7.55415 9.72979 -3.15383
C 4.58334 9.79395 -3.26565
C 6.33876 12.4651 -3.09185
Si 7.71192 11.6065 -2.42836
Si 4.72155 11.5747 -2.4295
Si 6.08346 8.90896 -2.47813
C 9.31029 10.6106 -5.74324
Si 10.8434 9.80269 -4.96971
Si 12.3667 12.4598 -5.09061
C 12.4084 10.7179 -5.67129
C 10.7579 9.84581 -3.12293
C 12.3405 12.3788 -3.16443
Si 9.22358 12.5085 -4.93053
Si 10.7838 11.6419 -2.49771
C 9.30935 12.3985 -3.12103
Si 12.2387 8.95088 -2.43561
Si 9.16939 8.88275 -2.5328
C 15.4135 10.6655 -5.74158
Si 16.8585 9.85693 -4.9769
C 17.0163 9.76102 -3.06959
Si 13.836 9.83752 -5.02374
C 13.8324 9.82216 -3.10532
Si 15.3442 12.4987 -5.07017
Si 16.9606 11.5568 -2.51607
Si 13.8757 11.5752 -2.46364
C 15.4268 12.5324 -3.02936
Si 15.3285 8.99086 -2.44838
C 1.56798 13.3544 -5.60312
C 18.4483 15.9777 -5.51175
Si 1.5376 15.0984 -4.9489
C 3.08866 15.8957 -5.64193
C 1.55165 15.1445 -2.94717
Si 1.50599 16.8673 -2.46907
Si 3.19493 14.2304 -2.37012
Si 18.4043 14.204 -2.48016
C 7.67771 13.3514 -5.66779
C 4.56844 13.2697 -5.63949
C 6.19749 15.9474 -5.55072
Si 7.66622 15.0654 -4.81923
C 7.63994 15.1804 -3.05534
Si 4.63208 15.0022 -5.00064
C 4.64797 15.2566 -3.05899
Si 7.79149 16.9125 -2.48571
Si 4.63887 16.8722 -2.5003
Si 6.20583 14.2026 -2.36602
C 10.8116 13.4046 -5.71919
C 12.3562 15.8949 -5.64097
Si 10.6581 15.1631 -4.98351
C 9.11534 16.0301 -5.75855
C 10.6869 15.1247 -2.94796
Si 10.803 16.8752 -2.50073
Si 9.24151 14.1743 -2.39084
Si 12.2848 14.2456 -2.41703
C 16.8596 13.3665 -5.5679
C 13.8339 13.2469 -5.70032
Si 16.8954 15.1308 -4.97125
Si 13.7702 15.0574 -4.97179
C 15.3597 16.0547 -5.48846
C 16.9764 15.0326 -3.04772
C 13.7287 15.0321 -2.96288
Si 16.9085 16.8846 -2.38088
Si 13.8219 16.9052 -2.42688
Si 15.3522 14.2839 -2.26978
C 1.45588 18.6974 -5.63674
Si 1.62665 20.4721 -4.96617
C 1.55749 20.4732 -3.07557
Si 2.9798 17.7941 -5.05694
C 3.11256 17.7678 -3.20941
Si 18.4143 17.8241 -4.88486
Si 18.4796 19.5855 -2.43536
C 18.4882 17.8681 -3.12136
Si 3.04938 19.4964 -2.5097
C 7.66189 18.54 -5.65096
C 4.50335 18.5443 -5.65477
Si 7.61646 20.4017 -5.04984
Si 4.574 20.428 -5.01172
C 7.86753 20.481 -3.00927
C 4.49207 20.3858 -3.08376
Si 6.04658 17.7256 -5.03743
Si 6.19895 19.5558 -2.5509
C 6.22266 17.7288 -3.08463
C 10.7977 18.6761 -5.631
Si 10.8864 20.4176 -5.04504
C 10.9472 20.4618 -3.09025
Si 9.22397 17.8519 -5.10696
C 9.31351 17.87 -3.00227
Si 12.244 17.7074 -5.01187
Si 12.418 19.6171 -2.47475
C 12.3042 17.8334 -3.10481
Si 9.40551 19.6081 -2.46805
C 16.951 18.7542 -5.73125
C 13.9117 18.484 -5.63619
Si 16.9299 20.5068 -4.9563
C 16.9222 20.5377 -3.14604
Si 13.874 20.4374 -4.98759
C 13.8403 20.4975 -3.16023
Si 15.4705 17.8261 -4.99031
C 15.2574 17.7586 -3.06684
Si 15.3879 19.6229 -2.49882
C 1.50395 0.966192 -0.355081
C 3.00619 3.43894 -0.555516
Si 1.45788 2.67284 0.136946
C 18.4656 3.55747 -0.324272
Si 3.0029 21.2433 0.170895
Si 18.4116 0.0318269 0.161049
C 7.69013 0.889223 -0.537997
C 4.51387 0.751027 -0.520297
Si 7.71599 2.66607 -0.0590492
Si 4.65533 2.58254 0.136191
C 6.20827 3.60401 -0.480096
Si 6.19616 21.2223 0.0526157
C 10.8562 0.868372 -0.548629
C 9.30302 3.45248 -0.575934
Si 10.918 2.61058 -0.0103298
C 12.4391 3.67284 -0.487345
Si 9.32783 21.3315 0.0265797
Si 12.3348 21.3154 0.0506826
C 16.9478 0.931958 -0.26915
C 13.9258 0.733571 -0.463544
C 15.5119 3.68591 -0.378096
Si 16.9615 2.63049 0.257098
Si 13.8968 2.80197 0.0222001
Si 15.3678 21.3049 0.0885889
C 1.59121 6.23437 -0.473451
Si 1.5199 8.10486 0.171892
Si 18.4663 5.51966 0.00579921
Si 3.13579 5.23932 -0.000634288
C 7.58199 6.18873 -0.397185
C 4.61921 6.18319 -0.478918
Si 7.73404 8.07332 -0.0685937
Si 4.54458 7.92905 0.0241029
Si 6.15269 5.35932 0.129667
C 10.8058 6.20483 -0.488794
Si 10.702 7.94936 -0.0830615
Si 12.2772 5.40529 0.0492328
Si 9.23781 5.24837 -0.0895856
C 16.9759 6.40017 -0.523106
C 13.8672 6.25243 -0.439139
Si 16.8881 8.10275 0.0589284
Si 13.8258 8.0494 -0.0362148
Si 15.4489 5.39982 0.0104507
C 1.55667 11.5705 -0.583545
C 0.0162121 8.92878 -0.553582
Si 3.1055 10.6489 0.0126556
C 3.05798 8.93036 -0.500604
Si 4.29967e-05 10.7543 0.048961
C 7.59074 11.6367 -0.526761
C 4.81275 11.5062 -0.502749
C 6.10703 9.00532 -0.562281
Si 6.22207 10.6764 0.152561
C 10.754 11.5847 -0.591791
C 12.2568 8.87831 -0.591549
Si 9.28614 10.6452 -0.0453969
C 9.26537 8.92726 -0.653438
Si 12.3176 10.6077 0.0652713
C 16.8904 11.5891 -0.510421
C 13.8702 11.5697 -0.44518
Si 15.3973 10.8076 0.0767187
C 15.2748 9.05284 -0.541682
C 1.51395 16.8525 -0.457412
C 3.1015 14.1283 -0.490939
Si 1.50301 13.3775 -0.0376344
Si 18.4508 16.0282 -0.00114776
C 18.4858 14.249 -0.5473
Si 3.01392 15.9455 0.086082
C 7.83622 16.8179 -0.555606
C 4.65461 16.9129 -0.510511
Si 7.72445 13.3185 0.130543
Si 4.55046 13.254 0.206446
Si 6.24615 15.945 0.0476924
C 6.12129 14.148 -0.521747
C 10.8148 16.797 -0.556422
C 9.22808 14.3111 -0.391537
Si 10.7425 13.3016 0.105654
Si 12.2462 15.906 0.0973783
C 12.2434 14.1568 -0.443458
Si 9.26017 16.0201 0.227981
C 16.8805 16.8652 -0.575873
C 13.8649 16.821 -0.412408
C 15.334 14.196 -0.248158
Si 16.8784 13.3593 0.117827
Si 13.792 13.3269 0.156216
Si 15.4032 15.9811 0.18349
C 0.0324353 19.5984 -0.356621
Si 1.46175 18.6497 0.100822
C 3.00377 19.5338 -0.518153
C 6.17224 19.5463 -0.491785
Si 7.756 18.6321 0.0809774
Si 4.58301 18.6775 0.0984053
C 12.3684 19.5364 -0.560983
Si 10.8544 18.5869 -0.0691676
C 9.30702 19.5397 -0.57681
Si 16.8696 18.6438 0.0370908
Si 13.8764 18.6732 0.00845717
C 15.4564 19.5906 -0.473602
661
Atoms. Timestep: 100
C 1.54135 2.6697 -13.2143
Si 3.08271 8.88179e-16 -15.1021
C 3.08271 8.88179e-16 -13.2143
Si 0 0 -15.1021
Si 0 1.7798 -12.5851
C 0 0 -13.2143
Si 3.08271 1.7798 -12.5851
C 7.70676 2.6697 -13.2143
C 4.62405 2.6697 -13.2143
Si 6.1654 0 -15.1021
Si 6.1654 1.7798 -12.5851
C 6.1654 0 -13.2143
C 10.7895 2.6697 -13.2143
C 9.24811 0 -13.2143
Si 12.3308 0 -15.1021
Si 12.3308 1.7798 -12.5851
C 12.3308 0 -13.2143
Si 9.24811 1.7798 -12.5851
C 16.9549 2.6697 -13.2143
Si 13.8722 2.6697 -15.1021
C 13.8722 2.6697 -13.2143
Si 15.4135 8.88179e-16 -15.1021
C 15.4135 0 -13.2143
Si 15.4135 1.7798 -12.5851
C 1.54135 8.0091 -13.2143
C 0 5.3394 -13.2143
Si 1.54135 4.44949 -12.5851
Si 3.08271 7.11919 -12.5851
C 3.08271 5.3394 -13.2143
Si 0 7.11919 -12.5851
C 7.70676 8.0091 -13.2143
C 4.62405 8.0091 -13.2143
C 6.1654 5.3394 -13.2143
Si 7.70676 4.44949 -12.5851
Si 4.62405 4.44949 -12.5851
Si 6.1654 7.11919 -12.5851
C 10.7895 8.0091 -13.2143
C 12.3308 5.3394 -13.2143
Si 10.7895 4.44949 -12.5851
Si 9.24811 7.11919 -12.5851
C 9.24811 5.3394 -13.2143
Si 12.3308 7.11919 -12.5851
C 16.9549 8.0091 -13.2143
C 13.8722 8.0091 -13.2143
Si 16.9549 4.44949 -12.5851
Si 13.8722 4.44949 -12.5851
Si 15.4135 7.11919 -12.5851
C 15.4135 5.3394 -13.2143
Si 3.08271 10.6788 -15.1021
C 3.08271 10.6788 -13.2143
Si 0 10.6788 -15.1021
Si 1.54135 9.78889 -12.5851
Si 0 12.4586 -12.5851
C 0 10.6788 -13.2143
Si 3.08271 12.4586 -12.5851
Si 6.1654 10.6788 -15.1021
Si 7.70676 9.78889 -12.5851
Si 4.62405 9.78889 -12.5851
Si 6.1654 12.4586 -12.5851
C 6.1654 10.6788 -13.2143
Si 9.24811 10.6788 -15.1021
C 9.24811 10.6788 -13.2143
Si 10.7895 9.78889 -12.5851
Si 12.3308 12.4586 -12.5851
C 12.3308 10.6788 -13.2143
Si 9.24811 12.4586 -12.5851
C 15.4135 10.6788 -13.2143
Si 16.9549 9.78889 -12.5851
Si 13.8722 9.78889 -12.5851
Si 15.4135 12.4586 -12.5851
Si 1.54135 13.3485 -15.1021
C 1.54135 13.3485 -13.2143
C 0 16.0182 -13.2143
Si 1.54135 15.1283 -12.5851
C 3.08271 16.0182 -13.2143
Si 7.70676 13.3485 -15.1021
C 7.70676 13.3485 -13.2143
C 4.62405 13.3485 -13.2143
C 6.1654 16.0182 -13.2143
Si 7.70676 15.1283 -12.5851
Si 4.62405 15.1283 -12.5851
C 10.7895 13.3485 -13.2143
C 12.3308 16.0182 -13.2143
Si 10.7895 15.1283 -12.5851
C 9.24811 16.0182 -13.2143
C 16.9549 13.3485 -13.2143
C 13.8722 13.3485 -13.2143
Si 16.9549 15.1283 -12.5851
Si 13.8722 15.1283 -12.5851
C 15.4135 16.0182 -13.2143
C 1.54135 18.6879 -13.2143
Si 1.54135 20.4677 -12.5851
Si 3.08271 17.798 -12.5851
Si 0 17.798 -12.5851
C 7.70676 18.6879 -13.2143
C 4.62405 18.6879 -13.2143
Si 7.70676 20.4677 -12.5851
Si 4.62405 20.4677 -12.5851
Si 6.1654 17.798 -12.5851
C 10.7895 18.6879 -13.2143
Si 10.7895 20.4677 -12.5851
Si 9.24811 17.798 -12.5851
Si 12.3308 17.798 -12.5851
C 16.9549 18.6879 -13.2143
C 13.8722 18.6879 -13.2143
Si 16.9549 20.4677 -12.5851
Si 13.8722 20.4677 -12.5851
Si 15.4135 17.798 -12.5851
Si 0 0 -7.55105
Si 3.08271 0 -7.55105
C 0 3.55961 -8.18029
Si 1.54135 2.6697 -7.55105
Si 0 3.55961 -10.0681
C 0 1.7798 -10.6973
Si 1.54135 0.8899 -10.0681
Si 3.08271 3.55961 -10.0681
C 3.08271 1.7798 -10.6973
C 1.54135 0.8899 -8.18029
C 3.08271 3.55961 -8.18029
Si 6.1654 0 -7.55105
C 6.1654 3.55961 -8.18029
Si 4.62405 2.6697 -7.55105
Si 7.70676 2.6697 -7.55105
C 6.1654 1.7798 -10.6973
Si 7.70676 0.8899 -10.0681
C 7.70676 0.8899 -8.18029
Si 4.62405 0.8899 -10.0681
C 4.62405 0.8899 -8.18029
Si 6.1654 3.55961 -10.0681
Si 12.3308 4.44088e-16 -7.55105
Si 9.24811 4.44088e-16 -7.55105
C 12.3308 1.7798 -10.6973
Si 10.7895 0.8899 -10.0681
Si 9.24811 3.55961 -10.0681
C 9.24811 1.7798 -10.6973
C 10.7895 0.8899 -8.18029
C 9.24811 3.55961 -8.18029
Si 12.3308 3.55961 -10.0681
Si 10.7895 2.6697 -7.55105
C 12.3308 3.55961 -8.18029
Si 15.4135 0 -7.55105
Si 16.9549 0.8899 -10.0681
Si 13.8722 0.8899 -10.0681
Si 15.4135 3.55961 -10.0681
C 15.4135 1.7798 -10.6973
C 16.9549 0.8899 -8.18029
C 13.8722 0.8899 -8.18029
C 15.4135 3.55961 -8.18029
Si 16.9549 2.6697 -7.55105
Si 13.8722 2.6697 -7.55105
Si 3.08271 5.3394 -7.55105
Si 0 5.3394 -7.55105
C 1.54135 4.44949 -10.6973
C 3.08271 7.11919 -10.6973
Si 1.54135 6.2293 -10.0681
C 0 7.11919 -10.6973
C 1.54135 6.2293 -8.18029
Si 1.54135 8.0091 -7.55105
Si 6.1654 5.3394 -7.55105
C 7.70676 4.44949 -10.6973
C 4.62405 4.44949 -10.6973
Si 7.70676 6.2293 -10.0681
Si 4.62405 6.2293 -10.0681
C 6.1654 7.11919 -10.6973
C 7.70676 6.2293 -8.18029
C 4.62405 6.2293 -8.18029
Si 7.70676 8.0091 -7.55105
Si 4.62405 8.0091 -7.55105
Si 9.24811 5.3394 -7.55105
C 10.7895 4.44949 -10.6973
C 9.24811 7.11919 -10.6973
Si 10.7895 6.2293 -10.0681
C 12.3308 7.11919 -10.6973
C 10.7895 6.2293 -8.18029
Si 10.7895 8.0091 -7.55105
Si 12.3308 5.3394 -7.55105
C 16.9549 4.44949 -10.6973
C 13.8722 4.44949 -10.6973
C 15.4135 7.11919 -10.6973
Si 16.9549 6.2293 -10.0681
C 16.9549 6.2293 -8.18029
Si 13.8722 6.2293 -10.0681
C 13.8722 6.2293 -8.18029
Si 16.9549 8.0091 -7.55105
Si 13.8722 8.0091 -7.55105
Si 15.4135 5.3394 -7.55105
C 1.54135 9.78889 -10.6973
C 0 12.4586 -10.6973
Si 1.54135 11.5687 -10.0681
C 3.08271 12.4586 -10.6973
C 1.54135 11.5687 -8.18029
Si 0 8.899 -10.0681
C 0 8.899 -8.18029
Si 3.08271 8.899 -10.0681
Si 3.08271 10.6788 -7.55105
C 3.08271 8.899 -8.18029
Si 0 10.6788 -7.55105
C 7.70676 9.78889 -10.6973
C 4.62405 9.78889 -10.6973
C 6.1654 12.4586 -10.6973
Si 7.70676 11.5687 -10.0681
C 7.70676 11.5687 -8.18029
Si 4.62405 11.5687 -10.0681
C 4.62405 11.5687 -8.18029
Si 6.1654 8.899 -10.0681
C 6.1654 8.899 -8.18029
Si 6.1654 10.6788 -7.55105
C 10.7895 9.78889 -10.6973
C 12.3308 12.4586 -10.6973
Si 10.7895 11.5687 -10.0681
C 9.24811 12.4586 -10.6973
C 10.7895 11.5687 -8.18029
Si 12.3308 8.899 -10.0681
C 12.3308 8.899 -8.18029
Si 9.24811 8.899 -10.0681
Si 9.24811 10.6788 -7.55105
C 9.24811 8.899 -8.18029
Si 12.3308 10.6788 -7.55105
C 16.9549 9.78889 -10.6973
C 13.8722 9.78889 -10.6973
Si 16.9549 11.5687 -10.0681
Si 13.8722 11.5687 -10.0681
C 15.4135 12.4586 -10.6973
C 16.9549 11.5687 -8.18029
C 13.8722 11.5687 -8.18029
Si 15.4135 8.899 -10.0681
Si 15.4135 10.6788 -7.55105
C 15.4135 8.899 -8.18029
C 1.54135 15.1283 -10.6973
Si 1.54135 16.9081 -10.0681
C 1.54135 16.9081 -8.18029
Si 3.08271 14.2384 -10.0681
C 3.08271 14.2384 -8.18029
Si 0 14.2384 -10.0681
Si 1.54135 13.3485 -7.55105
Si 0 16.0182 -7.55105
C 0 14.2384 -8.18029
Si 3.08271 16.0182 -7.55105
Si 6.13378 15.9476 -7.49297
C 7.70676 15.1283 -10.6973
C 4.62405 15.1283 -10.6973
Si 7.70676 16.9081 -10.0681
Si 4.62405 16.9081 -10.0681
C 7.70676 16.9081 -8.18029
C 4.62405 16.9081 -8.18029
Si 6.1654 14.2384 -10.0681
Si 7.70676 13.3485 -7.55105
Si 4.62405 13.3485 -7.55105
C 6.1654 14.2384 -8.18029
C 10.7895 15.1283 -10.6973
Si 10.7895 16.9081 -10.0681
C 10.7895 16.9081 -8.18029
Si 9.24811 14.2384 -10.0681
C 9.24811 14.2384 -8.18029
Si 12.3308 14.2384 -10.0681
Si 10.7895 13.3485 -7.55105
Si 12.3308 16.0182 -7.55105
C 12.3308 14.2384 -8.18029
Si 9.24811 16.0182 -7.55105
Si 15.4637 16.02 -7.46994
C 16.9549 15.1283 -10.6973
C 13.8722 15.1283 -10.6973
Si 16.9549 16.9081 -10.0681
C 16.9549 16.9081 -8.18029
Si 13.8722 16.9081 -10.0681
C 13.8722 16.9081 -8.18029
Si 15.4135 14.2384 -10.0681
C 15.4135 14.2384 -8.18029
Si 16.9549 13.3485 -7.55105
Si 13.8722 13.3485 -7.55105
C 1.54135 20.4677 -10.6973
C 3.08271 17.798 -10.6973
Si 0 19.5778 -10.0681
C 0 17.798 -10.6973
C 0 19.5778 -8.18029
Si 3.08271 19.5778 -10.0681
Si 1.54135 18.6879 -7.55105
C 3.08271 19.5778 -8.18029
C 7.70676 20.4677 -10.6973
C 4.62405 20.4677 -10.6973
Si 6.1654 19.5778 -10.0681
C 6.1654 17.798 -10.6973
C 6.1654 19.5778 -8.18029
Si 7.70676 18.6879 -7.55105
Si 4.62405 18.6879 -7.55105
C 10.7895 20.4677 -10.6973
C 9.24811 17.798 -10.6973
Si 12.3308 19.5778 -10.0681
C 12.3308 17.798 -10.6973
C 12.3308 19.5778 -8.18029
Si 9.24811 19.5778 -10.0681
Si 10.7895 18.6879 -7.55105
C 9.24811 19.5778 -8.18029
Si 16.9683 18.7117 -7.5321
C 16.9549 20.4677 -10.6973
C 13.8722 20.4677 -10.6973
C 15.4135 17.798 -10.6973
Si 15.4135 19.5778 -10.0681
Si 13.8722 18.6879 -7.55105
C 15.4135 19.5778 -8.18029
C 1.48232 2.55959 -5.6707
C 3.16286 21.4046 -5.71085
Si 18.395 1.8667 -4.95192
C 0.0927221 21.4816 -5.58062
C -0.104406 1.82123 -3.07139
Si 3.09841 1.73678 -5.07352
Si 1.53028 0.849603 -2.46829
Si 3.07036 3.59112 -2.55297
C 2.91961 1.76048 -3.17269
Si 18.539 3.60008 -2.38431
C 7.61618 2.65568 -5.53805
C 4.74902 2.51867 -5.58554
Si 6.14888 1.62744 -4.93629
C 6.17615 21.2196 -5.6608
C 6.03784 1.7068 -3.11879
Si 7.73796 0.920613 -2.46352
Si 4.54047 0.862566 -2.35384
Si 6.12309 3.55971 -2.5155
C 10.8161 2.53205 -5.59838
C 9.31259 21.3702 -5.7239
Si 12.3697 1.69658 -5.06205
C 12.2576 21.4046 -5.71848
C 12.3245 1.77711 -3.09903
Si 9.25556 1.70248 -5.00016
Si 10.8939 0.91316 -2.53286
Si 9.32762 3.43287 -2.53519
C 9.25969 1.67043 -3.02057
Si 12.2724 3.60686 -2.43973
C 16.8414 2.58665 -5.67146
C 13.9082 2.64282 -5.67991
C 15.4124 -0.106456 -5.64812
Si 15.3805 1.7962 -4.99209
Si 16.9058 0.919851 -2.38643
Si 13.9093 0.969371 -2.40168
Si 15.5365 3.62005 -2.37345
C 15.4711 1.85415 -3.06751
C 1.60219 8.09758 -5.64227
C -0.0226965 5.42271 -5.48059
Si 1.46739 4.38868 -4.94603
Si 3.00693 7.11647 -5.0165
C 3.00576 5.24406 -5.53302
C 1.62651 4.5663 -3.10802
C 3.00888 7.00211 -3.12339
Si -0.00305061 7.12054 -4.89394
Si 1.54039 6.22538 -2.44573
C 0.111086 7.1504 -3.05615
C 7.73399 7.97614 -5.60182
C 4.72466 7.97276 -5.53166
C 6.25604 5.22116 -5.71787
Si 7.73055 4.3238 -4.96545
C 7.78008 4.51054 -3.02645
Si 4.69205 4.4132 -4.96844
C 4.53811 4.49744 -3.05358
Si 6.20448 7.02047 -5.08359
Si 7.62491 6.22303 -2.37689
Si 4.62809 6.14745 -2.43318
C 6.08427 7.14798 -3.04553
C 10.8856 8.15173 -5.54779
C 12.4389 5.431 -5.52926
Si 10.7914 4.34832 -5.11547
Si 9.23866 7.08236 -4.97146
C 9.14904 5.40605 -5.62238
C 10.7355 4.32071 -3.23815
C 9.05888 7.19272 -3.03607
Si 12.3101 7.17363 -4.93562
Si 10.8075 6.15154 -2.56575
C 12.3417 6.98955 -3.16413
C 16.8521 8.10656 -5.74836
C 13.7843 7.94536 -5.63547
Si 16.9555 4.46519 -4.92503
Si 13.9438 4.48607 -4.97549
Si 15.3625 7.16058 -4.93551
C 15.3915 5.39559 -5.73928
C 16.9251 4.5803 -2.98967
C 13.8384 4.45995 -3.16932
C 15.4883 7.12682 -3.05535
Si 16.9748 6.28058 -2.41342
Si 13.9478 6.21721 -2.47279
C 3.11182 10.6642 -5.57843
Si 1.51435 9.8066 -4.94731
Si 18.444 12.4605 -5.11482
C 18.5591 10.7225 -5.59212
C 1.58046 9.8366 -3.07736
C 18.4163 12.431 -3.15257
Si 3.05242 12.3659 -4.99019
Si 1.64696 11.4985 -2.51015
C 3.18562 12.5624 -3.06199
Si 0.0683481 8.95662 -2.35761
Si 3.09254 8.87546 -2.51807
Si 7.66031 9.78578 -5.0305
Si 4.67201 9.77294 -4.9815
Si 6.21773 12.4016 -4.97001
C 6.04532 10.7129 -5.71996
C 7.62895 9.87663 -3.1285
C 4.65305 9.87466 -3.04314
C 6.14388 12.5298 -3.16678
Si 7.6682 11.5181 -2.5219
Si 4.65825 11.6293 -2.4319
Si 6.09886 8.91435 -2.46261
C 9.15849 10.7844 -5.53391
Si 10.8656 9.85022 -5.02976
Si 12.285 12.429 -5.1399
C 12.3458 10.6283 -5.65951
C 10.8417 9.88074 -3.22533
C 12.4201 12.5484 -3.14398
Si 9.24227 12.4353 -4.94787
Si 10.8353 11.5959 -2.53397
C 9.28089 12.4513 -3.12184
Si 12.2856 9.01264 -2.51505
Si 9.14208 8.98184 -2.52891
C 15.3432 10.7983 -5.74611
Si 16.8969 9.75727 -4.95741
C 17.0326 9.8833 -3.17781
Si 13.9076 9.8367 -5.079
C 13.7556 9.93505 -3.19199
Si 15.3619 12.4548 -5.06014
Si 16.8926 11.5446 -2.47973
Si 13.7916 11.6307 -2.39786
C 15.3487 12.3676 -3.01394
Si 15.3715 8.99725 -2.47044
C 1.46886 13.3166 -5.59335
C 18.4831 16.0086 -5.7097
Si 1.52647 15.0401 -4.87534
C 3.12033 16.0456 -5.57951
C 1.58946 15.065 -3.08212
Si 1.4405 16.9533 -2.48157
Si 3.15526 14.2146 -2.4169
Si 18.5255 14.0832 -2.50338
C 7.76884 13.2579 -5.55778
C 4.6055 13.2962 -5.59695
C 6.19887 15.9293 -5.56843
Si 7.63935 15.0089 -4.95524
C 7.63297 15.0454 -3.08305
Si 4.63124 14.9605 -4.96076
C 4.65388 15.0722 -3.12448
Si 7.8047 16.8624 -2.44905
Si 4.69899 16.9703 -2.36119
Si 6.21014 14.1663 -2.40886
C 10.8573 13.3871 -5.76381
C 12.184 15.8736 -5.52287
Si 10.6357 15.11 -5.01442
C 9.04273 15.9044 -5.54742
C 10.7864 15.1435 -3.19366
Si 10.789 16.8829 -2.43749
Si 9.22899 14.2669 -2.41869
Si 12.2218 14.2438 -2.41253
C 17.0238 13.3639 -5.77909
C 13.8064 13.2572 -5.80073
Si 16.9775 15.028 -5.05599
Si 13.8724 15.042 -4.91851
C 15.4425 15.9679 -5.61875
C 16.987 15.0556 -3.11548
C 13.7887 15.094 -2.98129
Si 16.9629 16.8162 -2.51955
Si 13.8159 16.8397 -2.35489
Si 15.3208 14.2259 -2.33345
C 1.42767 18.7451 -5.59637
Si 1.5626 20.4305 -4.97066
C 1.51036 20.4938 -3.08201
Si 3.04274 17.7721 -5.01382
C 3.15559 17.7161 -3.07496
Si 18.4585 17.7511 -5.02654
Si 18.4324 19.6803 -2.3922
C 18.4107 17.8586 -3.14191
Si 3.02729 19.4583 -2.50296
C 7.64762 18.5596 -5.61822
C 4.57199 18.6033 -5.59036
Si 7.64852 20.3268 -5.10936
Si 4.66545 20.3981 -5.01408
C 7.6937 20.5778 -3.1736
C 4.61494 20.5564 -2.97797
Si 6.03051 17.648 -4.95656
Si 6.25937 19.6358 -2.52079
C 6.12613 17.7742 -3.16232
C 10.8784 18.7424 -5.77554
Si 10.7947 20.4208 -4.99415
C 10.8879 20.3838 -3.12131
Si 9.17094 17.7335 -5.04817
C 9.36162 17.8674 -3.21362
Si 12.2463 17.785 -5.0123
Si 12.347 19.5482 -2.44371
C 12.2378 17.8125 -3.06636
Si 9.31186 19.6895 -2.44984
C 16.8368 18.792 -5.60101
C 13.8336 18.6495 -5.52307
Si 16.9528 20.5638 -5.0402
C 16.9939 20.6081 -3.10715
Si 13.8339 20.3713 -5.03326
C 13.9094 20.3944 -3.0007
Si 15.3948 17.813 -4.95315
C 15.3632 17.823 -3.15762
Si 15.3867 19.5914 -2.54678
C 1.48807 0.785738 -0.545721
C 3.1911 3.47562 -0.567053
Si 1.58211 2.66642 0.0962281
C 18.4784 3.54203 -0.357202
Si 3.03283 21.3755 0.220469
Si 18.4185 -0.05597 0.146594
C 7.75115 0.93765 -0.670568
C 4.4829 0.864561 -0.549791
Si 7.71214 2.68812 -0.0838089
Si 4.5813 2.58974 0.235087
C 6.25169 3.60077 -0.567405
Si 6.08843 21.3276 0.0941061
C 10.7693 0.963279 -0.538482
C 9.38866 3.45954 -0.59447
Si 10.8389 2.64378 0.090547
C 12.2927 3.56668 -0.439257
Si 9.34615 21.4236 0.14202
Si 12.3012 21.2376 -0.0314224
C 16.8452 0.956907 -0.409507
C 13.859 0.806744 -0.418993
C 15.5032 3.53422 -0.566421
Si 16.9634 2.74936 0.294498
Si 13.9191 2.67855 0.159281
Si 15.4855 21.2185 0.159355
C 1.58415 6.33774 -0.543176
Si 1.52759 8.03003 0.0874404
Si 18.4432 5.43898 0.0387964
Si 3.17971 5.2259 -0.038298
C 7.77834 6.30917 -0.560786
C 4.64911 6.19592 -0.612618
Si 7.65866 8.06093 -0.00701313
Si 4.70192 7.84541 0.1118
Si 6.16489 5.22733 0.167613