588
Atoms. Timestep: 0
3 1.54135 2.6697 -13.2143
4 3.08271 8.88179e-16 -15.1021
3 3.08271 8.88179e-16 -13.2143
4 0 0 -15.1021
4 0 1.7798 -12.5851
3 0 0 -13.2143
4 3.08271 1.7798 -12.5851
3 7.70676 2.6697 -13.2143
3 4.62405 2.6697 -13.2143
4 6.1654 0 -15.1021
4 6.1654 1.7798 -12.5851
3 6.1654 0 -13.2143
3 10.7895 2.6697 -13.2143
3 9.24811 0 -13.2143
4 12.3308 0 -15.1021
4 12.3308 1.7798 -12.5851
3 12.3308 0 -13.2143
4 9.24811 1.7798 -12.5851
3 16.9549 2.6697 -13.2143
4 13.8722 2.6697 -15.1021
3 13.8722 2.6697 -13.2143
4 15.4135 8.88179e-16 -15.1021
3 15.4135 0 -13.2143
4 15.4135 1.7798 -12.5851
3 1.54135 8.0091 -13.2143
3 0 5.3394 -13.2143
4 1.54135 4.44949 -12.5851
4 3.08271 7.11919 -12.5851
3 3.08271 5.3394 -13.2143
4 0 7.11919 -12.5851
3 7.70676 8.0091 -13.2143
3 4.62405 8.0091 -13.2143
3 6.1654 5.3394 -13.2143
4 7.70676 4.44949 -12.5851
4 4.62405 4.44949 -12.5851
4 6.1654 7.11919 -12.5851
3 10.7895 8.0091 -13.2143
3 12.3308 5.3394 -13.2143
4 10.7895 4.44949 -12.5851
4 9.24811 7.11919 -12.5851
3 9.24811 5.3394 -13.2143
4 12.3308 7.11919 -12.5851
3 16.9549 8.0091 -13.2143
3 13.8722 8.0091 -13.2143
4 16.9549 4.44949 -12.5851
4 13.8722 4.44949 -12.5851
4 15.4135 7.11919 -12.5851
3 15.4135 5.3394 -13.2143
4 3.08271 10.6788 -15.1021
3 3.08271 10.6788 -13.2143
4 0 10.6788 -15.1021
4 1.54135 9.78889 -12.5851
4 0 12.4586 -12.5851
3 0 10.6788 -13.2143
4 3.08271 12.4586 -12.5851
4 6.1654 10.6788 -15.1021
4 7.70676 9.78889 -12.5851
4 4.62405 9.78889 -12.5851
4 6.1654 12.4586 -12.5851
3 6.1654 10.6788 -13.2143
4 9.24811 10.6788 -15.1021
3 9.24811 10.6788 -13.2143
4 10.7895 9.78889 -12.5851
4 12.3308 12.4586 -12.5851
3 12.3308 10.6788 -13.2143
4 9.24811 12.4586 -12.5851
3 15.4135 10.6788 -13.2143
4 16.9549 9.78889 -12.5851
4 13.8722 9.78889 -12.5851
4 15.4135 12.4586 -12.5851
4 1.54135 13.3485 -15.1021
3 1.54135 13.3485 -13.2143
3 0 16.0182 -13.2143
4 1.54135 15.1283 -12.5851
3 3.08271 16.0182 -13.2143
4 7.70676 13.3485 -15.1021
3 7.70676 13.3485 -13.2143
3 4.62405 13.3485 -13.2143
3 6.1654 16.0182 -13.2143
4 7.70676 15.1283 -12.5851
4 4.62405 15.1283 -12.5851
3 10.7895 13.3485 -13.2143
3 12.3308 16.0182 -13.2143
4 10.7895 15.1283 -12.5851
3 9.24811 16.0182 -13.2143
3 16.9549 13.3485 -13.2143
3 13.8722 13.3485 -13.2143
4 16.9549 15.1283 -12.5851
4 13.8722 15.1283 -12.5851
3 15.4135 16.0182 -13.2143
3 1.54135 18.6879 -13.2143
4 1.54135 20.4677 -12.5851
4 3.08271 17.798 -12.5851
4 0 17.798 -12.5851
3 7.70676 18.6879 -13.2143
3 4.62405 18.6879 -13.2143
4 7.70676 20.4677 -12.5851
4 4.62405 20.4677 -12.5851
4 6.1654 17.798 -12.5851
3 10.7895 18.6879 -13.2143
4 10.7895 20.4677 -12.5851
4 9.24811 17.798 -12.5851
4 12.3308 17.798 -12.5851
3 16.9549 18.6879 -13.2143
3 13.8722 18.6879 -13.2143
4 16.9549 20.4677 -12.5851
4 13.8722 20.4677 -12.5851
4 15.4135 17.798 -12.5851
4 0 0 -7.55105
4 3.08271 0 -7.55105
3 0 3.55961 -8.18029
4 1.54135 2.6697 -7.55105
4 0 3.55961 -10.0681
3 0 1.7798 -10.6973
4 1.54135 0.8899 -10.0681
4 3.08271 3.55961 -10.0681
3 3.08271 1.7798 -10.6973
3 1.54135 0.8899 -8.18029
3 3.08271 3.55961 -8.18029
4 6.1654 0 -7.55105
3 6.1654 3.55961 -8.18029
4 4.62405 2.6697 -7.55105
4 7.70676 2.6697 -7.55105
3 6.1654 1.7798 -10.6973
4 7.70676 0.8899 -10.0681
3 7.70676 0.8899 -8.18029
4 4.62405 0.8899 -10.0681
3 4.62405 0.8899 -8.18029
4 6.1654 3.55961 -10.0681
4 12.3308 4.44088e-16 -7.55105
4 9.24811 4.44088e-16 -7.55105
3 12.3308 1.7798 -10.6973
4 10.7895 0.8899 -10.0681
4 9.24811 3.55961 -10.0681
3 9.24811 1.7798 -10.6973
3 10.7895 0.8899 -8.18029
3 9.24811 3.55961 -8.18029
4 12.3308 3.55961 -10.0681
4 10.7895 2.6697 -7.55105
3 12.3308 3.55961 -8.18029
4 15.4135 0 -7.55105
4 16.9549 0.8899 -10.0681
4 13.8722 0.8899 -10.0681
4 15.4135 3.55961 -10.0681
3 15.4135 1.7798 -10.6973
3 16.9549 0.8899 -8.18029
3 13.8722 0.8899 -8.18029
3 15.4135 3.55961 -8.18029
4 16.9549 2.6697 -7.55105
4 13.8722 2.6697 -7.55105
4 3.08271 5.3394 -7.55105
4 0 5.3394 -7.55105
3 1.54135 4.44949 -10.6973
3 3.08271 7.11919 -10.6973
4 1.54135 6.2293 -10.0681
3 0 7.11919 -10.6973
3 1.54135 6.2293 -8.18029
4 1.54135 8.0091 -7.55105
4 6.1654 5.3394 -7.55105
3 7.70676 4.44949 -10.6973
3 4.62405 4.44949 -10.6973
4 7.70676 6.2293 -10.0681
4 4.62405 6.2293 -10.0681
3 6.1654 7.11919 -10.6973
3 7.70676 6.2293 -8.18029
3 4.62405 6.2293 -8.18029
4 7.70676 8.0091 -7.55105
4 4.62405 8.0091 -7.55105
4 9.24811 5.3394 -7.55105
3 10.7895 4.44949 -10.6973
3 9.24811 7.11919 -10.6973
4 10.7895 6.2293 -10.0681
3 12.3308 7.11919 -10.6973
3 10.7895 6.2293 -8.18029
4 10.7895 8.0091 -7.55105
4 12.3308 5.3394 -7.55105
3 16.9549 4.44949 -10.6973
3 13.8722 4.44949 -10.6973
3 15.4135 7.11919 -10.6973
4 16.9549 6.2293 -10.0681
3 16.9549 6.2293 -8.18029
4 13.8722 6.2293 -10.0681
3 13.8722 6.2293 -8.18029
4 16.9549 8.0091 -7.55105
4 13.8722 8.0091 -7.55105
4 15.4135 5.3394 -7.55105
3 1.54135 9.78889 -10.6973
3 0 12.4586 -10.6973
4 1.54135 11.5687 -10.0681
3 3.08271 12.4586 -10.6973
3 1.54135 11.5687 -8.18029
4 0 8.899 -10.0681
3 0 8.899 -8.18029
4 3.08271 8.899 -10.0681
4 3.08271 10.6788 -7.55105
3 3.08271 8.899 -8.18029
4 0 10.6788 -7.55105
3 7.70676 9.78889 -10.6973
3 4.62405 9.78889 -10.6973
3 6.1654 12.4586 -10.6973
4 7.70676 11.5687 -10.0681
3 7.70676 11.5687 -8.18029
4 4.62405 11.5687 -10.0681
3 4.62405 11.5687 -8.18029
4 6.1654 8.899 -10.0681
3 6.1654 8.899 -8.18029
4 6.1654 10.6788 -7.55105
3 10.7895 9.78889 -10.6973
3 12.3308 12.4586 -10.6973
4 10.7895 11.5687 -10.0681
3 9.24811 12.4586 -10.6973
3 10.7895 11.5687 -8.18029
4 12.3308 8.899 -10.0681
3 12.3308 8.899 -8.18029
4 9.24811 8.899 -10.0681
4 9.24811 10.6788 -7.55105
3 9.24811 8.899 -8.18029
4 12.3308 10.6788 -7.55105
3 16.9549 9.78889 -10.6973
3 13.8722 9.78889 -10.6973
4 16.9549 11.5687 -10.0681
4 13.8722 11.5687 -10.0681
3 15.4135 12.4586 -10.6973
3 16.9549 11.5687 -8.18029
3 13.8722 11.5687 -8.18029
4 15.4135 8.899 -10.0681
4 15.4135 10.6788 -7.55105
3 15.4135 8.899 -8.18029
3 1.54135 15.1283 -10.6973
4 1.54135 16.9081 -10.0681
3 1.54135 16.9081 -8.18029
4 3.08271 14.2384 -10.0681
3 3.08271 14.2384 -8.18029
4 0 14.2384 -10.0681
4 1.54135 13.3485 -7.55105
4 0 16.0182 -7.55105
3 0 14.2384 -8.18029
4 3.08271 16.0182 -7.55105
2 6.13753 15.9664 -7.60717
3 7.70676 15.1283 -10.6973
3 4.62405 15.1283 -10.6973
4 7.70676 16.9081 -10.0681
4 4.62405 16.9081 -10.0681
3 7.70676 16.9081 -8.18029
3 4.62405 16.9081 -8.18029
4 6.1654 14.2384 -10.0681
4 7.70676 13.3485 -7.55105
4 4.62405 13.3485 -7.55105
3 6.1654 14.2384 -8.18029
3 10.7895 15.1283 -10.6973
4 10.7895 16.9081 -10.0681
3 10.7895 16.9081 -8.18029
4 9.24811 14.2384 -10.0681
3 9.24811 14.2384 -8.18029
4 12.3308 14.2384 -10.0681
4 10.7895 13.3485 -7.55105
4 12.3308 16.0182 -7.55105
3 12.3308 14.2384 -8.18029
4 9.24811 16.0182 -7.55105
2 15.2923 16.0429 -7.52749
3 16.9549 15.1283 -10.6973
3 13.8722 15.1283 -10.6973
4 16.9549 16.9081 -10.0681
3 16.9549 16.9081 -8.18029
4 13.8722 16.9081 -10.0681
3 13.8722 16.9081 -8.18029
4 15.4135 14.2384 -10.0681
3 15.4135 14.2384 -8.18029
4 16.9549 13.3485 -7.55105
4 13.8722 13.3485 -7.55105
3 1.54135 20.4677 -10.6973
3 3.08271 17.798 -10.6973
4 0 19.5778 -10.0681
3 0 17.798 -10.6973
3 0 19.5778 -8.18029
4 3.08271 19.5778 -10.0681
4 1.54135 18.6879 -7.55105
3 3.08271 19.5778 -8.18029
3 7.70676 20.4677 -10.6973
3 4.62405 20.4677 -10.6973
4 6.1654 19.5778 -10.0681
3 6.1654 17.798 -10.6973
3 6.1654 19.5778 -8.18029
4 7.70676 18.6879 -7.55105
4 4.62405 18.6879 -7.55105
3 10.7895 20.4677 -10.6973
3 9.24811 17.798 -10.6973
4 12.3308 19.5778 -10.0681
3 12.3308 17.798 -10.6973
3 12.3308 19.5778 -8.18029
4 9.24811 19.5778 -10.0681
4 10.7895 18.6879 -7.55105
3 9.24811 19.5778 -8.18029
2 16.981 18.7067 -7.58128
3 16.9549 20.4677 -10.6973
3 13.8722 20.4677 -10.6973
3 15.4135 17.798 -10.6973
4 15.4135 19.5778 -10.0681
4 13.8722 18.6879 -7.55105
3 15.4135 19.5778 -8.18029
1 1.47283 2.76758 -5.69485
1 3.07979 21.314 -5.63695
2 18.4686 1.80369 -5.10768
1 0.0616233 0.0308647 -5.64976
1 18.3677 1.82553 -3.15084
2 2.97534 1.86897 -4.98007
2 1.45138 0.935695 -2.36701
2 2.92803 3.66308 -2.54839
1 2.91741 1.85072 -3.17754
2 18.4458 3.49701 -2.47786
1 7.62654 2.73885 -5.62212
1 4.48711 2.70366 -5.62737
2 6.11246 1.72855 -5.02897
1 6.25322 0.0275684 -5.69071
1 6.11724 1.82284 -3.11529
2 7.71264 0.987314 -2.57439
2 4.51393 1.02384 -2.55965
2 6.12959 3.73371 -2.50245
1 10.7858 2.61511 -5.58941
1 9.23549 21.3425 -5.67591
2 12.4147 1.81881 -5.17199
1 12.3273 21.311 -5.72442
1 12.4263 1.74507 -3.16878
2 9.16506 1.7276 -5.02948
2 10.8339 0.901555 -2.64066
2 9.17231 3.53417 -2.49819
1 9.21463 1.77393 -3.12079
2 12.2919 3.47808 -2.38217
1 16.9604 2.58621 -5.69307
1 13.9647 2.69484 -5.66005
1 15.4156 21.2594 -5.71648
2 15.5043 1.66215 -4.92356
2 16.9173 0.746102 -2.30274
2 13.8799 0.904898 -2.53446
2 15.3209 3.48447 -2.45581
1 15.3991 1.74762 -2.99381
1 1.49704 8.03919 -5.63643
1 18.4588 5.44345 -5.60992
2 1.5249 4.46589 -4.95001
2 3.03767 7.20832 -4.96714
1 3.04845 5.37517 -5.61396
1 1.43857 4.46991 -3.17011
1 3.07707 7.12075 -3.06636
2 0.0021483 7.23642 -4.9585
2 1.53192 6.32044 -2.42132
1 18.4862 7.23482 -3.08037
1 7.70737 8.0589 -5.58732
1 4.73919 8.03368 -5.64634
1 6.19026 5.37635 -5.65447
2 7.65782 4.43063 -4.95307
1 7.62523 4.52377 -3.09324
2 4.58057 4.51724 -4.9054
1 4.56759 4.43625 -3.03957
2 6.18475 7.18446 -4.94373
2 7.73815 6.2138 -2.59789
2 4.68115 6.30216 -2.41733
1 6.17535 7.22053 -3.07388
1 10.7559 7.94229 -5.68005
1 12.2777 5.27137 -5.65909
2 10.7226 4.37529 -4.95219
2 9.21604 7.1156 -5.07844
1 9.22871 5.39228 -5.64954
1 10.7639 4.45818 -3.08756
1 9.21703 7.11308 -3.19865
2 12.3121 7.12872 -5.08744
2 10.6855 6.32853 -2.5473
1 12.224 7.12889 -3.13459
1 16.9278 8.0585 -5.66042
1 13.8587 8.09634 -5.69576
2 16.9329 4.39956 -4.91673
2 13.9291 4.48362 -5.04011
2 15.4599 7.18606 -5.10744
1 15.4641 5.37951 -5.75052
1 16.9202 4.4502 -3.12607
1 13.7939 4.39264 -3.19488
1 15.4134 7.12171 -3.21007
2 17.0085 6.23956 -2.4807
2 13.8964 6.23975 -2.54824
1 3.09362 10.6758 -5.68802
2 1.68987 9.78013 -5.04335
2 0.0657237 12.4852 -5.10575
1 0.0791116 10.6663 -5.6625
1 1.59854 9.82605 -3.07835
1 0.00153827 12.4742 -3.10212
2 3.09943 12.4171 -5.04501
2 1.44597 11.5661 -2.43068
1 3.13374 12.4863 -3.08856
2 0.0319395 8.96551 -2.36438
2 3.01496 8.88354 -2.50317
2 7.69086 9.81984 -4.99946
2 4.65592 9.76384 -4.97862
2 6.08117 12.3755 -4.94609
1 6.20752 10.6899 -5.5959
1 7.7771 9.77379 -3.04999
1 4.60759 9.74039 -3.06249
1 6.16153 12.4636 -3.13746
2 7.76682 11.6028 -2.47584
2 4.62215 11.454 -2.56352
2 6.27279 9.02239 -2.4444
1 9.31492 10.6477 -5.65244
2 10.7831 9.72095 -4.96783
2 12.4382 12.5649 -5.05256
1 12.3191 10.6883 -5.69074
1 10.8137 9.79181 -3.13589
1 12.4098 12.5041 -3.18766
2 9.32108 12.4484 -5.14622
2 10.8572 11.6827 -2.4592
1 9.30726 12.5094 -3.1866
2 12.4504 8.98215 -2.5901
2 9.24274 9.01585 -2.40317
1 15.4714 10.7153 -5.73662
2 16.9152 9.85599 -5.06965
1 16.9413 9.80104 -3.15444
2 13.8597 9.86044 -5.21717
1 13.9358 9.77071 -3.19748
2 15.3773 12.417 -5.08929
2 17.0939 11.5952 -2.5866
2 13.8877 11.5019 -2.56198
1 15.447 12.4322 -3.16866
2 15.3923 8.89862 -2.48046
1 1.57847 13.3726 -5.67691
1 18.4736 15.9257 -5.61257
2 1.58393 15.1597 -5.02395
1 3.04616 16.0416 -5.63616
1 1.68901 15.137 -3.11683
2 1.46924 16.9816 -2.38994
2 3.16174 14.3163 -2.51746
2 0.154444 14.234 -2.54195
1 7.59976 13.3582 -5.66301
1 4.60066 13.4781 -5.61342
1 6.20517 16.0886 -5.7478
2 7.61889 15.2373 -5.15561
1 7.67206 15.1433 -3.13121
2 4.63327 15.3646 -4.9518
1 4.67943 15.325 -3.06065
2 7.66409 16.8781 -2.6287
2 4.67303 17.0104 -2.37224
2 6.19468 14.2655 -2.38085
1 10.8601 13.3294 -5.64586
1 12.3494 15.9704 -5.63952
2 10.7979 14.9924 -5.07382
1 9.29039 15.9585 -5.6754
1 10.7984 15.2311 -3.22206
2 10.8233 17.0227 -2.47919
2 9.24064 14.3089 -2.44986
2 12.3663 14.2705 -2.56941
1 17.0063 13.2888 -5.60647
1 13.8833 13.3584 -5.67316
2 16.9862 15.0079 -4.92428
2 13.8587 15.0444 -5.02021
1 15.477 16.0411 -5.57391
1 16.9487 15.0785 -3.07035
1 13.9723 15.1128 -3.15924
2 17.0305 16.8542 -2.32113
2 13.8295 16.8223 -2.36541
2 15.5261 14.1953 -2.45258
1 1.60122 18.6698 -5.63178
2 1.57061 20.4692 -4.94808
1 1.47271 20.5327 -2.98439
2 3.15599 17.823 -4.91821
1 3.1487 17.8741 -2.99765
2 0.0664606 17.7653 -4.98001
2 0.0362476 19.543 -2.39359
1 0.011556 17.7189 -3.02522
2 3.08461 19.7007 -2.379
1 7.70406 18.7403 -5.64483
1 4.70442 18.6812 -5.63529
2 7.76959 20.4434 -5.06736
2 4.66328 20.525 -4.94681
1 7.68745 20.5018 -3.24713
1 4.63728 20.551 -3.12786
2 6.27205 17.8706 -4.94708
2 6.28189 19.5974 -2.51293
1 6.19864 17.88 -3.04488
1 10.791 18.7561 -5.74795
2 10.739 20.3884 -5.12743
1 10.8309 20.4605 -3.20409
2 9.27426 17.7783 -5.06361
1 9.21217 17.744 -3.26205
2 12.2362 17.6901 -5.04455
2 12.3563 19.6873 -2.46916
1 12.3791 17.8583 -3.0441
2 9.14902 19.5849 -2.58394
1 17.0887 18.6812 -5.68718
1 13.8287 18.6139 -5.61221
2 16.986 20.4784 -5.01498
1 16.9814 20.4528 -3.07089
2 13.7922 20.4236 -4.96714
1 13.8727 20.439 -3.01456
2 15.5667 17.8431 -4.95723
1 15.4809 17.7264 -3.06129
2 15.5267 19.4802 -2.45032
1 1.54434 0.830306 -0.381358
1 2.89804 3.62496 -0.546636
2 1.46025 2.69535 -0.0360034
1 18.3954 3.49079 -0.673493
2 3.11541 0.0245034 -0.179655
2 18.4853 21.2402 -0.10502
1 7.67023 1.03327 -0.572309
1 4.57228 0.930003 -0.654283
2 7.70981 2.72134 -0.394316
2 4.49471 2.67418 -0.172738
1 6.03519 3.61768 -0.492691
2 6.10845 0.0815623 -0.263622
1 10.7892 0.956515 -0.546122
1 9.18818 3.62789 -0.656156
2 10.6887 2.83885 -0.185514
1 12.253 3.56383 -0.566872
2 9.21372 0.0838273 -0.315634
2 12.3434 21.34 -0.121542
1 16.9993 0.738657 -0.544733
1 13.8472 0.867609 -0.511387
1 15.4025 3.58722 -0.542558
2 16.988 2.53886 -0.338649
2 13.8654 2.58168 -0.191978
2 15.3446 21.3022 0.11535
1 1.50017 6.27614 -0.572521
2 1.52903 8.04051 -0.260813
2 0.0377354 5.39783 -0.090975
2 3.03621 5.48029 -0.118612
1 7.71248 6.34041 -0.575571
1 4.6166 6.35452 -0.461278
2 7.60072 8.03396 -0.416244
2 4.58129 8.13404 -0.121814
2 6.1462 5.47141 -0.0740305
1 10.9296 6.2145 -0.49852
2 10.8041 8.05497 -0.201855
2 12.4245 5.26059 -0.0728827
2 9.27533 5.37227 -0.317204
1 16.927 6.31858 -0.403921
1 13.9003 6.16023 -0.605232
2 16.8891 8.07432 -0.146672
2 13.9173 7.93219 -0.360215
2 15.3955 5.3482 -0.0289658
1 1.53742 11.6018 -0.426513
1 0.0268772 8.92606 -0.366316
2 2.99718 10.6895 -0.0477226
1 2.98891 8.90693 -0.573759
2 0.0152655 10.7243 -0.510572
1 7.74614 11.6172 -0.463363
1 4.58665 11.6534 -0.61828
1 6.0736 9.015 -0.556542
2 6.20213 10.743 -0.235925
1 10.8392 11.5414 -0.441706
1 12.2547 8.86915 -0.676936
2 9.25691 10.6621 -0.200949
1 9.24239 8.92423 -0.498007
2 12.3676 10.5345 -0.450767
1 16.9275 11.4819 -0.629606
1 13.9002 11.4809 -0.591247
2 15.4521 10.6282 -0.253474
1 15.4392 8.86949 -0.688384
1 1.61411 16.9802 -0.537423
1 3.10631 14.2888 -0.58433
2 1.53802 13.3985 -0.128851
2 0.104484 15.9608 -0.163556
1 0.0706315 14.223 -0.607165
2 3.15631 16.0807 -0.337955
1 7.72504 16.8997 -0.563157
1 4.6789 16.9563 -0.456687
2 7.71973 13.3342 -0.0986167
2 4.5335 13.3766 -0.242872
2 6.25991 16.0275 -0.174248
1 6.22829 14.1827 -0.529419
1 10.8241 17.0029 -0.635406
1 9.31582 14.1882 -0.538933
2 10.9245 13.3653 -0.38018
2 12.3241 16.0791 -0.205962
1 12.4563 14.3047 -0.71294
2 9.28678 16.0659 -0.488825
1 17.035 16.8352 -0.287423
1 13.9101 16.95 -0.500151
1 15.4957 14.1558 -0.405522
2 17.0413 13.1723 -0.262897
2 13.899 13.2823 -0.309261
2 15.4948 16.0223 -0.106711
1 0.069364 19.4811 -0.195844
2 1.61 18.6557 -0.082095
1 3.14473 19.6524 -0.41416
1 6.22444 19.6488 -0.517579
2 7.7031 18.8149 -0.294038
2 4.61586 18.7671 -0.0221095
1 12.2844 19.6926 -0.502507
2 10.7285 18.8728 -0.225716
1 9.22282 19.6412 -0.745198
2 16.9936 18.6792 -0.211278
2 13.8035 18.6558 -0.392896
1 15.3797 19.5558 -0.483086
588
Atoms. Timestep: 100
3 1.54135 2.6697 -13.2143
4 3.08271 8.88179e-16 -15.1021
3 3.08271 8.88179e-16 -13.2143
4 0 0 -15.1021
4 0 1.7798 -12.5851
3 0 0 -13.2143
4 3.08271 1.7798 -12.5851
3 7.70676 2.6697 -13.2143
3 4.62405 2.6697 -13.2143
4 6.1654 0 -15.1021
4 6.1654 1.7798 -12.5851
3 6.1654 0 -13.2143
3 10.7895 2.6697 -13.2143
3 9.24811 0 -13.2143
4 12.3308 0 -15.1021
4 12.3308 1.7798 -12.5851
3 12.3308 0 -13.2143
4 9.24811 1.7798 -12.5851
3 16.9549 2.6697 -13.2143
4 13.8722 2.6697 -15.1021
3 13.8722 2.6697 -13.2143
4 15.4135 8.88179e-16 -15.1021
3 15.4135 0 -13.2143
4 15.4135 1.7798 -12.5851
3 1.54135 8.0091 -13.2143
3 0 5.3394 -13.2143
4 1.54135 4.44949 -12.5851
4 3.08271 7.11919 -12.5851
3 3.08271 5.3394 -13.2143
4 0 7.11919 -12.5851
3 7.70676 8.0091 -13.2143
3 4.62405 8.0091 -13.2143
3 6.1654 5.3394 -13.2143
4 7.70676 4.44949 -12.5851
4 4.62405 4.44949 -12.5851
4 6.1654 7.11919 -12.5851
3 10.7895 8.0091 -13.2143
3 12.3308 5.3394 -13.2143
4 10.7895 4.44949 -12.5851
4 9.24811 7.11919 -12.5851
3 9.24811 5.3394 -13.2143
4 12.3308 7.11919 -12.5851
3 16.9549 8.0091 -13.2143
3 13.8722 8.0091 -13.2143
4 16.9549 4.44949 -12.5851
4 13.8722 4.44949 -12.5851
4 15.4135 7.11919 -12.5851
3 15.4135 5.3394 -13.2143
4 3.08271 10.6788 -15.1021
3 3.08271 10.6788 -13.2143
4 0 10.6788 -15.1021
4 1.54135 9.78889 -12.5851
4 0 12.4586 -12.5851
3 0 10.6788 -13.2143
4 3.08271 12.4586 -12.5851
4 6.1654 10.6788 -15.1021
4 7.70676 9.78889 -12.5851
4 4.62405 9.78889 -12.5851
4 6.1654 12.4586 -12.5851
3 6.1654 10.6788 -13.2143
4 9.24811 10.6788 -15.1021
3 9.24811 10.6788 -13.2143
4 10.7895 9.78889 -12.5851
4 12.3308 12.4586 -12.5851
3 12.3308 10.6788 -13.2143
4 9.24811 12.4586 -12.5851
3 15.4135 10.6788 -13.2143
4 16.9549 9.78889 -12.5851
4 13.8722 9.78889 -12.5851
4 15.4135 12.4586 -12.5851
4 1.54135 13.3485 -15.1021
3 1.54135 13.3485 -13.2143
3 0 16.0182 -13.2143
4 1.54135 15.1283 -12.5851
3 3.08271 16.0182 -13.2143
4 7.70676 13.3485 -15.1021
3 7.70676 13.3485 -13.2143
3 4.62405 13.3485 -13.2143
3 6.1654 16.0182 -13.2143
4 7.70676 15.1283 -12.5851
4 4.62405 15.1283 -12.5851
3 10.7895 13.3485 -13.2143
3 12.3308 16.0182 -13.2143
4 10.7895 15.1283 -12.5851
3 9.24811 16.0182 -13.2143
3 16.9549 13.3485 -13.2143
3 13.8722 13.3485 -13.2143
4 16.9549 15.1283 -12.5851
4 13.8722 15.1283 -12.5851
3 15.4135 16.0182 -13.2143
3 1.54135 18.6879 -13.2143
4 1.54135 20.4677 -12.5851
4 3.08271 17.798 -12.5851
4 0 17.798 -12.5851
3 7.70676 18.6879 -13.2143
3 4.62405 18.6879 -13.2143
4 7.70676 20.4677 -12.5851
4 4.62405 20.4677 -12.5851
4 6.1654 17.798 -12.5851
3 10.7895 18.6879 -13.2143
4 10.7895 20.4677 -12.5851
4 9.24811 17.798 -12.5851
4 12.3308 17.798 -12.5851
3 16.9549 18.6879 -13.2143
3 13.8722 18.6879 -13.2143
4 16.9549 20.4677 -12.5851
4 13.8722 20.4677 -12.5851
4 15.4135 17.798 -12.5851
4 0 0 -7.55105
4 3.08271 0 -7.55105
3 0 3.55961 -8.18029
4 1.54135 2.6697 -7.55105
4 0 3.55961 -10.0681
3 0 1.7798 -10.6973
4 1.54135 0.8899 -10.0681
4 3.08271 3.55961 -10.0681
3 3.08271 1.7798 -10.6973
3 1.54135 0.8899 -8.18029
3 3.08271 3.55961 -8.18029
4 6.1654 0 -7.55105
3 6.1654 3.55961 -8.18029
4 4.62405 2.6697 -7.55105
4 7.70676 2.6697 -7.55105
3 6.1654 1.7798 -10.6973
4 7.70676 0.8899 -10.0681
3 7.70676 0.8899 -8.18029
4 4.62405 0.8899 -10.0681
3 4.62405 0.8899 -8.18029
4 6.1654 3.55961 -10.0681
4 12.3308 4.44088e-16 -7.55105
4 9.24811 4.44088e-16 -7.55105
3 12.3308 1.7798 -10.6973
4 10.7895 0.8899 -10.0681
4 9.24811 3.55961 -10.0681
3 9.24811 1.7798 -10.6973
3 10.7895 0.8899 -8.18029
3 9.24811 3.55961 -8.18029
4 12.3308 3.55961 -10.0681
4 10.7895 2.6697 -7.55105
3 12.3308 3.55961 -8.18029
4 15.4135 0 -7.55105
4 16.9549 0.8899 -10.0681
4 13.8722 0.8899 -10.0681
4 15.4135 3.55961 -10.0681
3 15.4135 1.7798 -10.6973
3 16.9549 0.8899 -8.18029
3 13.8722 0.8899 -8.18029
3 15.4135 3.55961 -8.18029
4 16.9549 2.6697 -7.55105
4 13.8722 2.6697 -7.55105
4 3.08271 5.3394 -7.55105
4 0 5.3394 -7.55105
3 1.54135 4.44949 -10.6973
3 3.08271 7.11919 -10.6973
4 1.54135 6.2293 -10.0681
3 0 7.11919 -10.6973
3 1.54135 6.2293 -8.18029
4 1.54135 8.0091 -7.55105
4 6.1654 5.3394 -7.55105
3 7.70676 4.44949 -10.6973
3 4.62405 4.44949 -10.6973
4 7.70676 6.2293 -10.0681
4 4.62405 6.2293 -10.0681
3 6.1654 7.11919 -10.6973
3 7.70676 6.2293 -8.18029
3 4.62405 6.2293 -8.18029
4 7.70676 8.0091 -7.55105
4 4.62405 8.0091 -7.55105
4 9.24811 5.3394 -7.55105
3 10.7895 4.44949 -10.6973
3 9.24811 7.11919 -10.6973
4 10.7895 6.2293 -10.0681
3 12.3308 7.11919 -10.6973
3 10.7895 6.2293 -8.18029
4 10.7895 8.0091 -7.55105
4 12.3308 5.3394 -7.55105
3 16.9549 4.44949 -10.6973
3 13.8722 4.44949 -10.6973
3 15.4135 7.11919 -10.6973
4 16.9549 6.2293 -10.0681
3 16.9549 6.2293 -8.18029
4 13.8722 6.2293 -10.0681
3 13.8722 6.2293 -8.18029
4 16.9549 8.0091 -7.55105
4 13.8722 8.0091 -7.55105
4 15.4135 5.3394 -7.55105
3 1.54135 9.78889 -10.6973
3 0 12.4586 -10.6973
4 1.54135 11.5687 -10.0681
3 3.08271 12.4586 -10.6973
3 1.54135 11.5687 -8.18029
4 0 8.899 -10.0681
3 0 8.899 -8.18029
4 3.08271 8.899 -10.0681
4 3.08271 10.6788 -7.55105
3 3.08271 8.899 -8.18029
4 0 10.6788 -7.55105
3 7.70676 9.78889 -10.6973
3 4.62405 9.78889 -10.6973
3 6.1654 12.4586 -10.6973
4 7.70676 11.5687 -10.0681
3 7.70676 11.5687 -8.18029
4 4.62405 11.5687 -10.0681
3 4.62405 11.5687 -8.18029
4 6.1654 8.899 -10.0681
3 6.1654 8.899 -8.18029
4 6.1654 10.6788 -7.55105
3 10.7895 9.78889 -10.6973
3 12.3308 12.4586 -10.6973
4 10.7895 11.5687 -10.0681
3 9.24811 12.4586 -10.6973
3 10.7895 11.5687 -8.18029
4 12.3308 8.899 -10.0681
3 12.3308 8.899 -8.18029
4 9.24811 8.899 -10.0681
4 9.24811 10.6788 -7.55105
3 9.24811 8.899 -8.18029
4 12.3308 10.6788 -7.55105
3 16.9549 9.78889 -10.6973
3 13.8722 9.78889 -10.6973
4 16.9549 11.5687 -10.0681
4 13.8722 11.5687 -10.0681
3 15.4135 12.4586 -10.6973
3 16.9549 11.5687 -8.18029
3 13.8722 11.5687 -8.18029
4 15.4135 8.899 -10.0681
4 15.4135 10.6788 -7.55105
3 15.4135 8.899 -8.18029
3 1.54135 15.1283 -10.6973
4 1.54135 16.9081 -10.0681
3 1.54135 16.9081 -8.18029
4 3.08271 14.2384 -10.0681
3 3.08271 14.2384 -8.18029
4 0 14.2384 -10.0681
4 1.54135 13.3485 -7.55105
4 0 16.0182 -7.55105
3 0 14.2384 -8.18029
4 3.08271 16.0182 -7.55105
2 6.1117 15.945 -7.51903
3 7.70676 15.1283 -10.6973
3 4.62405 15.1283 -10.6973
4 7.70676 16.9081 -10.0681
4 4.62405 16.9081 -10.0681
3 7.70676 16.9081 -8.18029
3 4.62405 16.9081 -8.18029
4 6.1654 14.2384 -10.0681
4 7.70676 13.3485 -7.55105
4 4.62405 13.3485 -7.55105
3 6.1654 14.2384 -8.18029
3 10.7895 15.1283 -10.6973
4 10.7895 16.9081 -10.0681
3 10.7895 16.9081 -8.18029
4 9.24811 14.2384 -10.0681
3 9.24811 14.2384 -8.18029
4 12.3308 14.2384 -10.0681
4 10.7895 13.3485 -7.55105
4 12.3308 16.0182 -7.55105
3 12.3308 14.2384 -8.18029
4 9.24811 16.0182 -7.55105
2 15.4878 16.0102 -7.4853
3 16.9549 15.1283 -10.6973
3 13.8722 15.1283 -10.6973
4 16.9549 16.9081 -10.0681
3 16.9549 16.9081 -8.18029
4 13.8722 16.9081 -10.0681
3 13.8722 16.9081 -8.18029
4 15.4135 14.2384 -10.0681
3 15.4135 14.2384 -8.18029
4 16.9549 13.3485 -7.55105
4 13.8722 13.3485 -7.55105
3 1.54135 20.4677 -10.6973
3 3.08271 17.798 -10.6973
4 0 19.5778 -10.0681
3 0 17.798 -10.6973
3 0 19.5778 -8.18029
4 3.08271 19.5778 -10.0681
4 1.54135 18.6879 -7.55105
3 3.08271 19.5778 -8.18029
3 7.70676 20.4677 -10.6973
3 4.62405 20.4677 -10.6973
4 6.1654 19.5778 -10.0681
3 6.1654 17.798 -10.6973
3 6.1654 19.5778 -8.18029
4 7.70676 18.6879 -7.55105
4 4.62405 18.6879 -7.55105
3 10.7895 20.4677 -10.6973
3 9.24811 17.798 -10.6973
4 12.3308 19.5778 -10.0681
3 12.3308 17.798 -10.6973
3 12.3308 19.5778 -8.18029
4 9.24811 19.5778 -10.0681
4 10.7895 18.6879 -7.55105
3 9.24811 19.5778 -8.18029
2 16.9579 18.7315 -7.51962
3 16.9549 20.4677 -10.6973
3 13.8722 20.4677 -10.6973
3 15.4135 17.798 -10.6973
4 15.4135 19.5778 -10.0681
4 13.8722 18.6879 -7.55105
3 15.4135 19.5778 -8.18029
1 1.47876 2.66508 -5.70854
1 3.14121 21.403 -5.66294
2 18.4043 1.89078 -5.04724
1 0.103698 0.0664638 -5.62245
1 18.4057 1.80101 -3.19368
2 3.02889 1.76607 -5.07464
2 1.45375 0.911329 -2.49194
2 2.99029 3.66308 -2.53673
1 2.8664 1.84888 -3.17791
2 18.5147 3.57707 -2.53173
1 7.59076 2.70519 -5.60448
1 4.62572 2.60823 -5.58892
2 6.12159 1.69292 -4.96156
1 6.2071 -0.0313362 -5.74808
1 6.08017 1.85237 -3.15994
2 7.66241 0.998015 -2.47667
2 4.53781 0.962262 -2.46923
2 6.10265 3.62177 -2.50466
1 10.7583 2.59907 -5.58985
1 9.26978 21.3818 -5.74503
2 12.3751 1.65495 -5.1228
1 12.2667 21.4034 -5.72873
1 12.3315 1.76363 -3.17275
2 9.13921 1.77828 -5.04535
2 10.8671 0.944677 -2.61813
2 9.26733 3.50341 -2.55811
1 9.24713 1.7455 -3.10057
2 12.1696 3.62091 -2.41912
1 16.8882 2.56135 -5.69202
1 13.8991 2.66311 -5.70627
1 15.4046 21.2319 -5.63767
2 15.3078 1.73621 -5.00677
2 16.935 0.838454 -2.44303
2 13.9247 0.955215 -2.411
2 15.4558 3.65218 -2.44973
1 15.4191 1.77896 -3.05508
1 1.55928 8.10075 -5.64382
1 18.4511 5.45667 -5.52557
2 1.46268 4.41126 -5.04385
2 2.97567 7.26553 -5.00791
1 3.03831 5.35919 -5.5581
1 1.51476 4.54352 -3.12297
1 3.01222 7.09488 -3.0841
2 -0.0677475 7.14465 -4.88116
2 1.45081 6.24891 -2.48974
1 18.5464 7.20135 -3.05035
1 7.76958 8.06754 -5.62815
1 4.7126 8.07374 -5.54451
1 6.19486 5.38777 -5.6954
2 7.7813 4.39903 -4.86538
1 7.72908 4.55828 -3.07949
2 4.7087 4.48149 -4.92375
1 4.50429 4.54113 -3.00684
2 6.25427 7.1124 -5.07496
2 7.57968 6.28517 -2.38519
2 4.72883 6.18612 -2.3718
1 6.14794 7.18259 -3.03064
1 10.8453 8.07354 -5.59601
1 12.334 5.38787 -5.63199
2 10.7535 4.29341 -5.07723
2 9.2358 7.08057 -4.99164
1 9.17137 5.39385 -5.64054
1 10.7051 4.34971 -3.15794
1 9.16672 7.19418 -3.08772
2 12.3281 7.18952 -4.96956
2 10.854 6.14978 -2.60072
1 12.3372 7.05406 -3.19979
1 16.8569 8.08807 -5.73299
1 13.8158 7.98841 -5.70213
2 16.9242 4.39779 -4.92832
2 13.9608 4.56314 -4.99839
2 15.3219 7.14076 -5.00032
1 15.3977 5.35295 -5.72465
1 16.8973 4.49519 -3.009
1 13.7886 4.44755 -3.1804
1 15.4887 7.10112 -3.15601
2 16.9408 6.25531 -2.33692
2 13.9665 6.17036 -2.64096
1 3.15292 10.6784 -5.60861
2 1.54239 9.85542 -4.8946
2 0.0283995 12.4179 -5.132
1 0.120956 10.7407 -5.60447
1 1.57997 9.88913 -3.07983
1 -0.0166198 12.4423 -3.15137
2 3.06806 12.3692 -4.98479
2 1.64901 11.5694 -2.5049
1 3.13972 12.5555 -3.09387
2 0.0643447 9.02146 -2.3311
2 3.10424 8.94224 -2.50475
2 7.69531 9.85823 -4.96151
2 4.73925 9.87769 -4.89187
2 6.21969 12.4638 -4.936
1 6.10832 10.7449 -5.66185
1 7.74152 9.88265 -3.07681
1 4.63138 9.8596 -3.04232
1 6.12859 12.513 -3.14233
2 7.68346 11.5173 -2.50782
2 4.59495 11.6924 -2.45422
2 6.15563 8.97117 -2.42089
1 9.20557 10.7205 -5.57996
2 10.9 9.8533 -5.0568
2 12.3357 12.3909 -5.15774
1 12.3343 10.6537 -5.67853
1 10.8877 9.85008 -3.21224
1 12.446 12.5328 -3.17156
2 9.28087 12.4231 -4.99233
2 10.8971 11.7312 -2.56023
1 9.34457 12.5007 -3.20421
2 12.3621 9.00197 -2.64185
2 9.22531 9.02176 -2.40763
1 15.3969 10.7457 -5.73869
2 16.9364 9.72914 -4.96362
1 17.0421 9.8381 -3.23422
2 13.9423 9.8242 -5.17635
1 13.8693 9.84969 -3.27518
2 15.342 12.4979 -5.07986
2 16.848 11.4624 -2.56729
2 13.846 11.5486 -2.47962
1 15.4218 12.3732 -3.11299
2 15.4153 9.00045 -2.56461
1 1.55119 13.348 -5.63855
1 18.5162 15.9457 -5.71633
2 1.55661 15.0505 -4.92458
1 3.10941 16.1364 -5.59895
1 1.63966 15.1552 -3.15114
2 1.52919 17.0231 -2.46429
2 3.17087 14.2981 -2.48487
2 0.183176 14.1408 -2.54889
1 7.70144 13.2865 -5.60824
1 4.61086 13.4789 -5.57207
1 6.20684 16.0785 -5.64764
2 7.66105 15.0118 -5.00009
1 7.64917 15.0802 -3.22274
2 4.64971 15.1536 -4.95365
1 4.65242 15.2093 -3.10152
2 7.82865 16.8319 -2.53412
2 4.76088 17.1085 -2.26752
2 6.22452 14.1815 -2.55621
1 10.8685 13.3045 -5.75863
1 12.3402 15.9393 -5.63231
2 10.6834 15.0573 -5.1039
1 9.15558 15.8788 -5.65509
1 10.8365 15.1754 -3.15382
2 10.7174 16.992 -2.48218
2 9.31998 14.3146 -2.56839
2 12.2882 14.2797 -2.59302
1 17.0597 13.2977 -5.74158
1 13.8818 13.2917 -5.77182
2 17.0827 14.9494 -5.09279
2 14.0201 14.9979 -4.99052
1 15.5033 15.9828 -5.62308
1 17.0683 15.0634 -3.10034
1 13.9399 15.1012 -3.10605
2 17.0843 16.7362 -2.4456
2 13.9097 16.829 -2.35787
2 15.4288 14.132 -2.46202
1 1.54603 18.7199 -5.58493
2 1.60764 20.3898 -4.92509
1 1.52238 20.5393 -3.00727
2 3.1946 17.8737 -4.89252
1 3.17158 17.8857 -2.95077
2 -0.00678738 17.6585 -5.07928
2 -0.0498676 19.6409 -2.29703
1 -0.033461 17.7993 -3.13859
2 3.04291 19.5891 -2.43231
1 7.7253 18.646 -5.68378
1 4.68737 18.6731 -5.56048
2 7.68857 20.3727 -5.16303
2 4.74839 20.4943 -5.01215
1 7.66684 20.5834 -3.18333
1 4.64192 20.5557 -3.0573
2 6.12476 17.7492 -4.88654
2 6.26103 19.7583 -2.50432
1 6.16961 17.8912 -3.0935
1 10.8158 18.6965 -5.72858
2 10.7485 20.4742 -5.02688
1 10.7992 20.3989 -3.1913
2 9.15966 17.7051 -5.11919
1 9.29583 17.7962 -3.22784
2 12.251 17.8613 -5.00923
2 12.2225 19.614 -2.32531
1 12.3171 17.8179 -3.06337
2 9.23427 19.6772 -2.57355
1 16.9826 18.7186 -5.63415
1 13.8391 18.6379 -5.51339
2 17.0142 20.562 -5.06549
1 16.9962 20.5134 -3.10425
2 13.7094 20.4248 -5.01192
1 13.9291 20.3982 -2.96372
2 15.517 17.8134 -4.94952
1 15.4679 17.7446 -3.12036
2 15.426 19.5163 -2.51525
1 1.48615 0.869933 -0.499248
1 3.04632 3.62552 -0.570236
2 1.52272 2.65289 -0.144953
1 18.48 3.46506 -0.560029
2 3.12401 0.154554 -0.0592545
2 18.5165 21.2744 -0.210592
1 7.66857 1.04023 -0.662899
1 4.4925 1.02491 -0.661498
2 7.63927 2.86072 -0.496522
2 4.44782 2.74393 -0.0856847
1 6.15241 3.68532 -0.498123
2 6.08745 0.192279 -0.278542
1 10.6769 0.986087 -0.491622
1 9.24805 3.62037 -0.643015
2 10.6656 2.7059 -0.0580058
1 12.2944 3.52163 -0.457021
2 9.22584 0.165238 -0.225396
2 12.2743 21.3365 -0.313028
1 16.9202 0.782879 -0.486378
1 13.8857 0.784695 -0.404333
1 15.4195 3.49206 -0.615121
2 16.9181 2.667 -0.252829
2 13.8302 2.58412 -0.0625073
2 15.3876 21.2178 0.123707
1 1.50424 6.29 -0.589377
2 1.50313 7.97283 -0.352958
2 -0.0891017 5.28697 -0.127125
2 3.1289 5.38415 -0.269652
1 7.76827 6.3465 -0.637823
1 4.62977 6.33557 -0.506692
2 7.70607 8.15718 -0.312043
2 4.65418 8.00952 -0.175011
2 6.20004 5.39362 -0.262597
1 10.7853 6.17575 -0.520773
2 10.8183 7.95026 -0.27311
2 12.3263 5.30809 -0.0163317
2 9.21282 5.35076 -0.428363
1 16.9774 6.20632 -0.49593
1 13.8973 6.2069 -0.50788
2 16.9367 8.04247 -0.181422
2 13.9181 8.0444 -0.447742
2 15.4242 5.37591 -0.119121
1 1.61399 11.5976 -0.487219
1 -0.0636289 8.88156 -0.379855
2 3.19419 10.7033 -0.0606353
1 3.05715 8.90224 -0.648451
2 0.0303991 10.6755 -0.311928
1 7.74339 11.5549 -0.572977
1 4.65995 11.5786 -0.500657
1 6.17688 8.91185 -0.604985
2 6.06915 10.7026 -0.0983668