162
Atoms. Timestep: 0
4 0 0 -8.7192
4 2.1798 0 -6.5394
4 0 2.1798 -6.5394
4 2.1798 2.1798 -8.7192
3 1.0899 1.0899 -7.6293
3 3.2697 1.0899 -5.4495
3 1.0899 3.2697 -5.4495
3 3.2697 3.2697 -7.6293
4 4.3596 0 -8.7192
4 6.5394 0 -6.5394
4 4.3596 2.1798 -6.5394
4 6.5394 2.1798 -8.7192
3 5.4495 1.0899 -7.6293
3 7.6293 1.0899 -5.4495
3 5.4495 3.2697 -5.4495
3 7.6293 3.2697 -7.6293
4 8.7192 0 -8.7192
4 10.899 0 -6.5394
4 8.7192 2.1798 -6.5394
4 10.899 2.1798 -8.7192
3 9.8091 1.0899 -7.6293
3 11.9889 1.0899 -5.4495
3 9.8091 3.2697 -5.4495
3 11.9889 3.2697 -7.6293
4 0 4.3596 -8.7192
4 2.1798 4.3596 -6.5394
4 0 6.5394 -6.5394
4 2.1798 6.5394 -8.7192
3 1.0899 5.4495 -7.6293
3 3.2697 5.4495 -5.4495
3 1.0899 7.6293 -5.4495
3 3.2697 7.6293 -7.6293
4 4.3596 4.3596 -8.7192
4 6.5394 4.3596 -6.5394
4 4.3596 6.5394 -6.5394
4 6.5394 6.5394 -8.7192
3 5.4495 5.4495 -7.6293
3 7.6293 5.4495 -5.4495
3 5.4495 7.6293 -5.4495
3 7.6293 7.6293 -7.6293
4 8.7192 4.3596 -8.7192
4 10.899 4.3596 -6.5394
4 8.7192 6.5394 -6.5394
4 10.899 6.5394 -8.7192
3 9.8091 5.4495 -7.6293
3 11.9889 5.4495 -5.4495
3 9.8091 7.6293 -5.4495
3 11.9889 7.6293 -7.6293
4 0 8.7192 -8.7192
4 2.1798 8.7192 -6.5394
4 0 10.899 -6.5394
4 2.1798 10.899 -8.7192
3 1.0899 9.8091 -7.6293
3 3.2697 9.8091 -5.4495
3 1.0899 11.9889 -5.4495
3 3.2697 11.9889 -7.6293
4 4.3596 8.7192 -8.7192
4 6.5394 8.7192 -6.5394
4 4.3596 10.899 -6.5394
4 6.5394 10.899 -8.7192
3 5.4495 9.8091 -7.6293
3 7.6293 9.8091 -5.4495
3 5.4495 11.9889 -5.4495
3 7.6293 11.9889 -7.6293
4 8.7192 8.7192 -8.7192
4 10.899 8.7192 -6.5394
4 8.7192 10.899 -6.5394
4 10.899 10.899 -8.7192
3 9.8091 9.8091 -7.6293
3 11.9889 9.8091 -5.4495
3 9.8091 11.9889 -5.4495
3 11.9889 11.9889 -7.6293
2 2.13976 0.0488976 -2.19134
2 13.0754 2.1868 -2.1417
1 1.16642 1.10223 -3.26105
1 3.27569 1.06517 -1.1201
1 1.17625 3.25865 -1.0666
1 3.2756 3.31714 -3.28618
4 2.1798 2.1798 -4.3596
4 0 0 -4.3596
2 6.53554 0.0236054 -2.19002
2 4.33237 2.15682 -2.28998
1 5.43142 1.10743 -3.32807
1 7.63308 1.09343 -1.16464
1 5.43955 3.25571 -1.12159
1 7.58236 3.34243 -3.23186
4 6.5394 2.1798 -4.3596
4 4.3596 0 -4.3596
2 10.9535 13.0589 -2.25819
2 8.70116 2.11618 -2.23145
1 9.8713 1.06441 -3.24522
1 12.0049 1.03394 -1.10882
1 9.85069 3.18214 -1.1034
1 11.9775 3.31468 -3.27899
4 10.899 2.1798 -4.3596
4 8.7192 0 -4.3596
2 2.19354 4.3095 -2.2095
2 0.0208289 6.44292 -2.17146
1 1.13929 5.40527 -3.30041
1 3.23694 5.45586 -1.14797
1 1.04609 7.57446 -1.12124
1 3.24482 7.63029 -3.26381
4 2.1798 6.5394 -4.3596
4 0 4.3596 -4.3596
4 6.5394 6.5394 -4.3596
2 6.52626 4.44168 -2.19075
2 4.32891 6.54216 -2.20013
4 4.3596 4.3596 -4.3596
1 5.42769 5.49053 -3.28686
1 7.62988 5.42696 -1.02984
1 5.43845 7.58844 -1.09189
1 7.66872 7.66245 -3.26578
4 10.899 6.5394 -4.3596
4 8.7192 4.3596 -4.3596
2 10.8006 4.37713 -2.11087
2 8.68376 6.45967 -2.14763
1 9.79463 5.44019 -3.30576
1 12.0038 5.34214 -1.09368
1 9.78721 7.52191 -1.11292
1 11.9434 7.544 -3.25008
4 2.1798 10.899 -4.3596
4 0 8.7192 -4.3596
2 2.14167 8.71021 -2.29313
2 13.0222 10.9278 -2.2227
1 1.07062 9.82589 -3.28482
1 3.23477 9.82953 -1.1382
1 1.0834 11.9393 -1.18613
1 3.27332 12.0044 -3.31949
4 6.5394 10.899 -4.3596
4 4.3596 8.7192 -4.3596
2 6.59309 8.76639 -2.12768
2 4.38438 10.8664 -2.23675
1 5.50922 9.78993 -3.27308
1 7.69648 9.77337 -1.10565
1 5.42849 11.9677 -1.16201
1 7.62269 11.966 -3.24002
4 10.899 10.899 -4.3596
4 8.7192 8.7192 -4.3596
2 10.8411 8.72846 -2.2223
2 8.76957 10.7821 -2.22317
1 9.84121 9.76849 -3.29903
1 11.9868 9.81075 -1.02944
1 9.81529 11.9393 -1.16342
1 11.9642 11.9825 -3.31975
2 0.00768496 13.0231 -0.322419
2 2.23042 2.09411 -0.214178
2 4.39508 0.087816 -0.279485
2 6.4492 2.05863 -0.344042
2 8.69836 12.9874 -0.224485
2 11.014 2.1224 -0.275684
2 13.069 4.30911 -0.187393
2 2.17806 6.55704 -0.291396
2 4.40002 4.35859 -0.220805
2 6.3898 6.39464 -0.190637
2 8.78328 4.35045 -0.175413
2 10.758 6.34561 -0.199181
2 13.0161 8.65813 -0.157103
2 2.11436 10.8382 -0.274794
2 4.26345 8.58498 -0.232559
2 6.5042 10.8801 -0.266842
2 8.69838 8.61579 -0.190445
2 10.9248 10.9781 -0.19191
165
Atoms. Timestep: 100
4 0 0 -8.7192
4 2.1798 0 -6.5394
4 0 2.1798 -6.5394
4 2.1798 2.1798 -8.7192
3 1.0899 1.0899 -7.6293
3 3.2697 1.0899 -5.4495
3 1.0899 3.2697 -5.4495
3 3.2697 3.2697 -7.6293
4 4.3596 0 -8.7192
4 6.5394 0 -6.5394
4 4.3596 2.1798 -6.5394
4 6.5394 2.1798 -8.7192
3 5.4495 1.0899 -7.6293
3 7.6293 1.0899 -5.4495
3 5.4495 3.2697 -5.4495
3 7.6293 3.2697 -7.6293
4 8.7192 0 -8.7192
4 10.899 0 -6.5394
4 8.7192 2.1798 -6.5394
4 10.899 2.1798 -8.7192
3 9.8091 1.0899 -7.6293
3 11.9889 1.0899 -5.4495
3 9.8091 3.2697 -5.4495
3 11.9889 3.2697 -7.6293
4 0 4.3596 -8.7192
4 2.1798 4.3596 -6.5394
4 0 6.5394 -6.5394
4 2.1798 6.5394 -8.7192
3 1.0899 5.4495 -7.6293
3 3.2697 5.4495 -5.4495
3 1.0899 7.6293 -5.4495
3 3.2697 7.6293 -7.6293
4 4.3596 4.3596 -8.7192
4 6.5394 4.3596 -6.5394
4 4.3596 6.5394 -6.5394
4 6.5394 6.5394 -8.7192
3 5.4495 5.4495 -7.6293
3 7.6293 5.4495 -5.4495
3 5.4495 7.6293 -5.4495
3 7.6293 7.6293 -7.6293
4 8.7192 4.3596 -8.7192
4 10.899 4.3596 -6.5394
4 8.7192 6.5394 -6.5394
4 10.899 6.5394 -8.7192
3 9.8091 5.4495 -7.6293
3 11.9889 5.4495 -5.4495
3 9.8091 7.6293 -5.4495
3 11.9889 7.6293 -7.6293
4 0 8.7192 -8.7192
4 2.1798 8.7192 -6.5394
4 0 10.899 -6.5394
4 2.1798 10.899 -8.7192
3 1.0899 9.8091 -7.6293
3 3.2697 9.8091 -5.4495
3 1.0899 11.9889 -5.4495
3 3.2697 11.9889 -7.6293
4 4.3596 8.7192 -8.7192
4 6.5394 8.7192 -6.5394
4 4.3596 10.899 -6.5394
4 6.5394 10.899 -8.7192
3 5.4495 9.8091 -7.6293
3 7.6293 9.8091 -5.4495
3 5.4495 11.9889 -5.4495
3 7.6293 11.9889 -7.6293
4 8.7192 8.7192 -8.7192
4 10.899 8.7192 -6.5394
4 8.7192 10.899 -6.5394
4 10.899 10.899 -8.7192
3 9.8091 9.8091 -7.6293
3 11.9889 9.8091 -5.4495
3 9.8091 11.9889 -5.4495
3 11.9889 11.9889 -7.6293
2 2.29954 -0.0789295 -2.217
2 13.1746 2.08914 -2.08669
1 1.1567 1.12154 -3.31096
1 3.22086 1.06742 -1.05652
1 1.16363 3.28956 -1.10713
1 3.26912 3.22693 -3.33376
4 2.1798 2.1798 -4.3596
4 0 0 -4.3596
2 6.44442 -0.0145625 -2.16921
2 4.27623 2.22995 -2.27483
1 5.38093 1.04998 -3.32737
1 7.71422 1.06264 -1.07941
1 5.41155 3.33354 -1.16969
1 7.66272 3.29181 -3.25588
4 6.5394 2.1798 -4.3596
4 4.3596 0 -4.3596
2 10.9626 12.9715 -2.29681
2 8.69819 2.20439 -2.30976
1 9.84289 1.05214 -3.23744
1 12.0386 1.04963 -1.14023
1 9.81986 3.25213 -1.1535
1 11.9571 3.27467 -3.23716
4 10.899 2.1798 -4.3596
4 8.7192 0 -4.3596
2 2.21548 4.35281 -2.30592
2 -0.0767741 6.36084 -2.15867
1 1.16424 5.44165 -3.28263
1 3.28963 5.40568 -1.15159
1 0.977035 7.50213 -1.14373
1 3.28748 7.6505 -3.20263
4 2.1798 6.5394 -4.3596
4 0 4.3596 -4.3596
4 6.5394 6.5394 -4.3596
2 6.5148 4.49406 -2.29344
2 4.32619 6.52898 -2.15017
4 4.3596 4.3596 -4.3596
1 5.46801 5.5434 -3.34424
1 7.62153 5.46506 -1.00977
1 5.38612 7.58014 -1.10302
1 7.66734 7.69905 -3.22317
4 10.899 6.5394 -4.3596
4 8.7192 4.3596 -4.3596
2 10.9082 4.36434 -2.11927
2 8.80812 6.45063 -2.23929
1 9.83259 5.36812 -3.3379
1 11.9787 5.38295 -1.02865
1 9.77946 7.55666 -1.09478
1 11.9698 7.54853 -3.31663
4 2.1798 10.899 -4.3596
4 0 8.7192 -4.3596
2 2.0781 8.7396 -2.11976
2 13.1407 10.949 -2.27236
1 1.01305 9.81879 -3.29951
1 3.21869 9.74749 -1.13557
1 1.18255 12.0079 -1.15723
1 3.23779 11.9964 -3.31796
4 6.5394 10.899 -4.3596
4 4.3596 8.7192 -4.3596
2 6.46108 8.75444 -2.13616
2 4.29966 10.8196 -2.20722
1 5.45664 9.86577 -3.31844
1 7.65724 9.78272 -1.04228
1 5.3666 11.9674 -1.09412
1 7.58452 11.9935 -3.2969
4 10.899 10.899 -4.3596
4 8.7192 8.7192 -4.3596
2 10.8851 8.65115 -2.05841
2 8.77755 10.9305 -2.1557
1 9.87727 9.77263 -3.26787
1 11.9826 9.84954 -1.02798
1 9.91495 12.0121 -1.12272
1 12.0304 12.0465 -3.34967
2 0.0124798 12.9066 -0.20644
2 2.19218 2.20286 -0.229285
2 4.52803 0.118591 -0.1833
2 7.11237 2.64271 -0.353886
2 8.66636 12.9484 -0.362782
2 10.861 2.04508 -0.273423
2 13.2329 4.34526 -0.284081
2 2.18176 6.46091 -0.30701
2 4.28136 4.37215 -0.342022
2 6.41742 6.36361 0.00218892
2 8.72587 4.31511 -0.168709
2 10.7021 6.30813 -0.199427
2 12.9129 8.50438 -0.25355
2 2.08154 10.7318 -0.310777
2 4.16681 8.70766 -0.245604
2 6.36031 10.7513 -0.00843444
2 8.69449 8.7107 -0.133074
2 11.0482 10.9764 -0.146033
1 8.1049 3.42839 1.49596
1 5.83694 10.3767 1.77208
1 6.79238 7.7815 1.45004
166
Atoms. Timestep: 200
4 0 0 -8.7192
4 2.1798 0 -6.5394
4 0 2.1798 -6.5394
4 2.1798 2.1798 -8.7192
3 1.0899 1.0899 -7.6293
3 3.2697 1.0899 -5.4495
3 1.0899 3.2697 -5.4495
3 3.2697 3.2697 -7.6293
4 4.3596 0 -8.7192
4 6.5394 0 -6.5394
4 4.3596 2.1798 -6.5394
4 6.5394 2.1798 -8.7192
3 5.4495 1.0899 -7.6293
3 7.6293 1.0899 -5.4495
3 5.4495 3.2697 -5.4495
3 7.6293 3.2697 -7.6293
4 8.7192 0 -8.7192
4 10.899 0 -6.5394
4 8.7192 2.1798 -6.5394
4 10.899 2.1798 -8.7192
3 9.8091 1.0899 -7.6293
3 11.9889 1.0899 -5.4495
3 9.8091 3.2697 -5.4495
3 11.9889 3.2697 -7.6293
4 0 4.3596 -8.7192
4 2.1798 4.3596 -6.5394
4 0 6.5394 -6.5394
4 2.1798 6.5394 -8.7192
3 1.0899 5.4495 -7.6293
3 3.2697 5.4495 -5.4495
3 1.0899 7.6293 -5.4495
3 3.2697 7.6293 -7.6293
4 4.3596 4.3596 -8.7192
4 6.5394 4.3596 -6.5394
4 4.3596 6.5394 -6.5394
4 6.5394 6.5394 -8.7192
3 5.4495 5.4495 -7.6293
3 7.6293 5.4495 -5.4495
3 5.4495 7.6293 -5.4495
3 7.6293 7.6293 -7.6293
4 8.7192 4.3596 -8.7192
4 10.899 4.3596 -6.5394
4 8.7192 6.5394 -6.5394
4 10.899 6.5394 -8.7192
3 9.8091 5.4495 -7.6293
3 11.9889 5.4495 -5.4495
3 9.8091 7.6293 -5.4495
3 11.9889 7.6293 -7.6293
4 0 8.7192 -8.7192
4 2.1798 8.7192 -6.5394
4 0 10.899 -6.5394
4 2.1798 10.899 -8.7192
3 1.0899 9.8091 -7.6293
3 3.2697 9.8091 -5.4495
3 1.0899 11.9889 -5.4495
3 3.2697 11.9889 -7.6293
4 4.3596 8.7192 -8.7192
4 6.5394 8.7192 -6.5394
4 4.3596 10.899 -6.5394
4 6.5394 10.899 -8.7192
3 5.4495 9.8091 -7.6293
3 7.6293 9.8091 -5.4495
3 5.4495 11.9889 -5.4495
3 7.6293 11.9889 -7.6293
4 8.7192 8.7192 -8.7192
4 10.899 8.7192 -6.5394
4 8.7192 10.899 -6.5394
4 10.899 10.899 -8.7192
3 9.8091 9.8091 -7.6293
3 11.9889 9.8091 -5.4495
3 9.8091 11.9889 -5.4495
3 11.9889 11.9889 -7.6293
2 2.28006 13.0438 -2.22605
2 0.139063 2.15967 -2.24383
1 1.06816 1.0287 -3.3149
1 3.31703 1.14477 -1.0012
1 1.12624 3.25964 -1.22329
1 3.30426 3.25746 -3.37356
4 2.1798 2.1798 -4.3596
4 0 0 -4.3596
2 6.44262 13.0388 -2.17894
2 4.36785 2.15598 -2.1219
1 5.38564 1.04485 -3.25319
1 7.73809 1.08343 -1.09098
1 5.54893 3.31249 -1.22116
1 7.68322 3.24458 -3.34764
4 6.5394 2.1798 -4.3596
4 4.3596 0 -4.3596
2 10.9441 13.1172 -2.17799
2 8.80675 2.22211 -2.19014
1 9.79137 1.06446 -3.30996
1 12.1235 1.03676 -1.12018
1 9.74998 3.32395 -1.15879
1 12.0509 3.17484 -3.22148
4 10.899 2.1798 -4.3596
4 8.7192 0 -4.3596
2 2.27455 4.37472 -2.28943
2 12.9696 6.45172 -2.26245
1 1.10249 5.42504 -3.32089
1 3.2556 5.48726 -1.20171
1 0.989997 7.53302 -1.11167
1 3.23168 7.5832 -3.34295
4 2.1798 6.5394 -4.3596
4 0 4.3596 -4.3596
4 6.5394 6.5394 -4.3596
2 6.57184 4.4093 -2.26468
2 4.37771 6.51271 -2.24201
4 4.3596 4.3596 -4.3596
1 5.45482 5.47095 -3.28004
1 7.63871 5.52062 -1.08018
1 5.34466 7.61791 -1.13641
1 7.61686 7.65453 -3.23111
4 10.899 6.5394 -4.3596
4 8.7192 4.3596 -4.3596
2 11.0149 4.28212 -2.27021
2 8.76521 6.54637 -2.27764
1 9.86065 5.42233 -3.28032
1 11.9099 5.35088 -0.972607
1 9.7615 7.59968 -0.976038
1 12.0181 7.60876 -3.29805
4 2.1798 10.899 -4.3596
4 0 8.7192 -4.3596
2 2.1028 8.67771 -2.25866
2 0.0578053 10.9385 -2.21039
1 1.02651 9.79095 -3.3055
1 3.18849 9.77433 -1.05857
1 1.16261 11.9661 -1.07873
1 3.29052 11.9503 -3.337
4 6.5394 10.899 -4.3596
4 4.3596 8.7192 -4.3596
2 6.42168 8.68885 -2.21896
2 4.22695 10.9082 -2.18571
1 5.38484 9.86824 -3.31265
1 7.54896 9.84068 -0.896797
1 5.35797 11.9119 -0.982254
1 7.58148 12.0191 -3.31854
4 10.899 10.899 -4.3596
4 8.7192 8.7192 -4.3596
2 10.9836 8.6292 -2.05361
2 8.73775 11.0093 -2.12744
1 9.87322 9.79889 -3.21495
1 12.0778 9.79567 -1.06392
1 9.93639 12.0474 -1.08414
1 12.056 11.9838 -3.30119
2 -0.0535909 12.9195 -0.177324
2 2.17093 2.30894 -0.210767
2 4.53087 0.183405 -0.148476
2 6.80163 2.41435 -0.364304
2 8.67167 12.8747 -0.234178
2 10.6502 2.04134 -0.30897
2 0.218335 4.47461 -0.209772
2 2.10878 6.41378 -0.28261
2 4.27916 4.27266 -0.34337
2 6.41711 6.58789 0.190825
2 8.58515 4.17167 -0.0545217
2 10.6921 6.31951 -0.209849
2 12.7988 8.4064 -0.340479
2 1.99483 10.7274 -0.286824
2 4.28088 8.64651 -0.0511873
2 6.19072 10.719 0.116898
2 8.15572 8.2778 -0.0761601
2 11.0567 11.06 -0.15533
1 7.69467 3.29399 1.00447
1 5.83694 10.3767 1.77208
1 6.79238 7.7815 1.45004
1 4.37543 8.7745 1.98856
168
Atoms. Timestep: 300
4 0 0 -8.7192
4 2.1798 0 -6.5394
4 0 2.1798 -6.5394
4 2.1798 2.1798 -8.7192
3 1.0899 1.0899 -7.6293
3 3.2697 1.0899 -5.4495
3 1.0899 3.2697 -5.4495
3 3.2697 3.2697 -7.6293
4 4.3596 0 -8.7192
4 6.5394 0 -6.5394
4 4.3596 2.1798 -6.5394
4 6.5394 2.1798 -8.7192
3 5.4495 1.0899 -7.6293
3 7.6293 1.0899 -5.4495
3 5.4495 3.2697 -5.4495
3 7.6293 3.2697 -7.6293
4 8.7192 0 -8.7192
4 10.899 0 -6.5394
4 8.7192 2.1798 -6.5394
4 10.899 2.1798 -8.7192
3 9.8091 1.0899 -7.6293
3 11.9889 1.0899 -5.4495
3 9.8091 3.2697 -5.4495
3 11.9889 3.2697 -7.6293
4 0 4.3596 -8.7192
4 2.1798 4.3596 -6.5394
4 0 6.5394 -6.5394
4 2.1798 6.5394 -8.7192
3 1.0899 5.4495 -7.6293
3 3.2697 5.4495 -5.4495
3 1.0899 7.6293 -5.4495
3 3.2697 7.6293 -7.6293
4 4.3596 4.3596 -8.7192
4 6.5394 4.3596 -6.5394
4 4.3596 6.5394 -6.5394
4 6.5394 6.5394 -8.7192
3 5.4495 5.4495 -7.6293
3 7.6293 5.4495 -5.4495
3 5.4495 7.6293 -5.4495
3 7.6293 7.6293 -7.6293
4 8.7192 4.3596 -8.7192
4 10.899 4.3596 -6.5394
4 8.7192 6.5394 -6.5394
4 10.899 6.5394 -8.7192
3 9.8091 5.4495 -7.6293
3 11.9889 5.4495 -5.4495
3 9.8091 7.6293 -5.4495
3 11.9889 7.6293 -7.6293
4 0 8.7192 -8.7192
4 2.1798 8.7192 -6.5394
4 0 10.899 -6.5394
4 2.1798 10.899 -8.7192
3 1.0899 9.8091 -7.6293
3 3.2697 9.8091 -5.4495
3 1.0899 11.9889 -5.4495
3 3.2697 11.9889 -7.6293
4 4.3596 8.7192 -8.7192
4 6.5394 8.7192 -6.5394
4 4.3596 10.899 -6.5394
4 6.5394 10.899 -8.7192
3 5.4495 9.8091 -7.6293
3 7.6293 9.8091 -5.4495
3 5.4495 11.9889 -5.4495
3 7.6293 11.9889 -7.6293
4 8.7192 8.7192 -8.7192
4 10.899 8.7192 -6.5394
4 8.7192 10.899 -6.5394
4 10.899 10.899 -8.7192
3 9.8091 9.8091 -7.6293
3 11.9889 9.8091 -5.4495
3 9.8091 11.9889 -5.4495
3 11.9889 11.9889 -7.6293
2 2.15218 13.1533 -2.14534
2 0.00404985 2.1904 -2.34195
1 1.11326 1.01521 -3.31109
1 3.39459 1.22516 -0.96163
1 1.11318 3.27353 -1.20949
1 3.30904 3.29001 -3.29236
4 2.1798 2.1798 -4.3596
4 0 0 -4.3596
2 6.54531 13.0232 -2.13268
2 4.47658 2.14458 -2.12206
1 5.43045 1.05378 -3.1976
1 7.67856 1.07618 -1.15807
1 5.6132 3.23441 -1.17949
1 7.65872 3.23734 -3.36584
4 6.5394 2.1798 -4.3596
4 4.3596 0 -4.3596
2 10.9539 0.147629 -2.15894
2 8.76774 2.13254 -2.18755
1 9.78887 1.10444 -3.34743
1 12.12 1.12724 -1.0494
1 9.75691 3.32173 -1.18311
1 12.0418 3.15635 -3.34596
4 10.899 2.1798 -4.3596
4 8.7192 0 -4.3596
2 2.20478 4.34917 -2.27617
2 13.0612 6.53514 -2.26318
1 1.02775 5.41354 -3.34229
1 3.19819 5.45278 -1.21998
1 1.04043 7.54486 -1.11428
1 3.24663 7.61726 -3.36549
4 2.1798 6.5394 -4.3596
4 0 4.3596 -4.3596
4 6.5394 6.5394 -4.3596
2 6.67202 4.32889 -2.22276
2 4.33808 6.55247 -2.34161
4 4.3596 4.3596 -4.3596
1 5.44116 5.41571 -3.27947
1 7.61961 5.52893 -1.1134
1 5.35665 7.66274 -1.16531
1 7.56977 7.60496 -3.28663
4 10.899 6.5394 -4.3596
4 8.7192 4.3596 -4.3596
2 10.9117 4.29077 -2.24595
2 8.67734 6.63635 -2.14741
1 9.88011 5.5088 -3.2531
1 11.9421 5.38368 -1.00502
1 9.757 7.66825 -0.880919
1 12.0153 7.66621 -3.26357
4 2.1798 10.899 -4.3596
4 0 8.7192 -4.3596
2 2.15003 8.58751 -2.30981
2 0.0194776 10.8549 -2.12363
1 1.1017 9.78444 -3.2997
1 3.20238 9.72177 -1.01597
1 1.0765 11.9763 -1.0381
1 3.25817 12.0028 -3.31987
4 6.5394 10.899 -4.3596
4 4.3596 8.7192 -4.3596
2 6.4848 8.72916 -2.22006
2 4.29133 10.9321 -2.11703
1 5.39931 9.7602 -3.25467
1 7.47667 9.84395 -0.836807
1 5.29842 11.9345 -0.876515
1 7.60684 12.0227 -3.28305
4 10.899 10.899 -4.3596
4 8.7192 8.7192 -4.3596
2 10.9568 8.73516 -2.16825
2 8.68804 10.9318 -2.10148
1 9.82783 9.8211 -3.15871
1 12.1158 9.79935 -1.08625
1 9.89704 12.0204 -1.0426
1 11.9723 11.8893 -3.20442
2 13.0094 12.9747 -0.217741
2 2.23874 2.30646 -0.228686
2 4.486 0.194854 -0.119928
2 6.55656 2.16575 -0.196553
2 8.64415 12.9286 -0.0853794
2 10.6212 1.96809 -0.367079
2 0.213779 4.55017 -0.218953
2 2.00397 6.42276 -0.265747
2 4.33974 4.1862 -0.367539
2 6.3247 6.60883 0.0919683
2 8.54478 4.28701 -0.290557
2 10.6732 6.34529 -0.0551751
2 12.7472 8.3456 -0.320054
2 1.95157 10.7154 -0.137268
2 4.3203 8.63581 0.130384
2 6.26348 10.6946 -0.037815
2 8.27149 8.55038 -0.0857122
2 11.1122 11.0248 -0.246592
1 7.69467 3.29399 1.00447
1 6.23017 10.3371 1.8324
1 6.79238 7.7815 1.45004
1 4.37543 8.7745 1.98856
1 5.79615 4.99486 1.56722
1 5.23052 6.66339 2.91456
168
Atoms. Timestep: 400
4 0 0 -8.7192
4 2.1798 0 -6.5394
4 0 2.1798 -6.5394
4 2.1798 2.1798 -8.7192
3 1.0899 1.0899 -7.6293
3 3.2697 1.0899 -5.4495
3 1.0899 3.2697 -5.4495
3 3.2697 3.2697 -7.6293
4 4.3596 0 -8.7192
4 6.5394 0 -6.5394
4 4.3596 2.1798 -6.5394
4 6.5394 2.1798 -8.7192
3 5.4495 1.0899 -7.6293
3 7.6293 1.0899 -5.4495
3 5.4495 3.2697 -5.4495
3 7.6293 3.2697 -7.6293
4 8.7192 0 -8.7192
4 10.899 0 -6.5394
4 8.7192 2.1798 -6.5394
4 10.899 2.1798 -8.7192
3 9.8091 1.0899 -7.6293
3 11.9889 1.0899 -5.4495
3 9.8091 3.2697 -5.4495
3 11.9889 3.2697 -7.6293
4 0 4.3596 -8.7192
4 2.1798 4.3596 -6.5394
4 0 6.5394 -6.5394
4 2.1798 6.5394 -8.7192
3 1.0899 5.4495 -7.6293
3 3.2697 5.4495 -5.4495
3 1.0899 7.6293 -5.4495
3 3.2697 7.6293 -7.6293
4 4.3596 4.3596 -8.7192
4 6.5394 4.3596 -6.5394
4 4.3596 6.5394 -6.5394
4 6.5394 6.5394 -8.7192
3 5.4495 5.4495 -7.6293
3 7.6293 5.4495 -5.4495
3 5.4495 7.6293 -5.4495
3 7.6293 7.6293 -7.6293
4 8.7192 4.3596 -8.7192
4 10.899 4.3596 -6.5394
4 8.7192 6.5394 -6.5394
4 10.899 6.5394 -8.7192
3 9.8091 5.4495 -7.6293
3 11.9889 5.4495 -5.4495
3 9.8091 7.6293 -5.4495
3 11.9889 7.6293 -7.6293
4 0 8.7192 -8.7192
4 2.1798 8.7192 -6.5394
4 0 10.899 -6.5394
4 2.1798 10.899 -8.7192
3 1.0899 9.8091 -7.6293
3 3.2697 9.8091 -5.4495
3 1.0899 11.9889 -5.4495
3 3.2697 11.9889 -7.6293
4 4.3596 8.7192 -8.7192
4 6.5394 8.7192 -6.5394
4 4.3596 10.899 -6.5394
4 6.5394 10.899 -8.7192
3 5.4495 9.8091 -7.6293
3 7.6293 9.8091 -5.4495
3 5.4495 11.9889 -5.4495
3 7.6293 11.9889 -7.6293
4 8.7192 8.7192 -8.7192
4 10.899 8.7192 -6.5394
4 8.7192 10.899 -6.5394
4 10.899 10.899 -8.7192
3 9.8091 9.8091 -7.6293
3 11.9889 9.8091 -5.4495
3 9.8091 11.9889 -5.4495
3 11.9889 11.9889 -7.6293
2 2.157 0.0693528 -2.02774
2 -0.0236684 2.13452 -2.20689
1 1.12255 1.11348 -3.28379
1 3.36605 1.23436 -0.984311
1 1.11968 3.31081 -1.13784
1 3.31334 3.23875 -3.2277
4 2.1798 2.1798 -4.3596
4 0 0 -4.3596
2 6.56282 13.0126 -2.08493
2 4.47087 2.24682 -2.23538
1 5.49719 1.0003 -3.25309
1 7.60537 1.02115 -1.11631
1 5.58085 3.26428 -1.07909
1 7.66112 3.26612 -3.30326
4 6.5394 2.1798 -4.3596
4 4.3596 0 -4.3596
2 10.9182 0.0577263 -2.1927
2 8.623 2.10878 -2.3308
1 9.83516 1.13681 -3.31929
1 12.0111 1.23242 -1.03053
1 9.81731 3.28887 -1.25409
1 12.0075 3.26655 -3.33103
4 10.899 2.1798 -4.3596
4 8.7192 0 -4.3596
2 2.06007 4.3353 -2.29548
2 13.0959 6.52345 -2.1796
1 1.03725 5.43436 -3.29886
1 3.24712 5.44213 -1.16854
1 1.07113 7.5632 -1.14348
1 3.31481 7.67612 -3.28227
4 2.1798 6.5394 -4.3596
4 0 4.3596 -4.3596
4 6.5394 6.5394 -4.3596
2 6.62464 4.34254 -2.22886
2 4.27402 6.55959 -2.25001
4 4.3596 4.3596 -4.3596
1 5.465 5.39261 -3.31915
1 7.56982 5.5656 -1.13953
1 5.35799 7.56234 -1.11295
1 7.57927 7.64653 -3.30064
4 10.899 6.5394 -4.3596
4 8.7192 4.3596 -4.3596
2 10.8562 4.38972 -2.16637
2 8.6816 6.67492 -2.03303
1 9.83167 5.56161 -3.22569
1 11.9699 5.46798 -1.07021
1 9.71631 7.74232 -0.820792
1 11.9692 7.69158 -3.25333
4 2.1798 10.899 -4.3596
4 0 8.7192 -4.3596
2 2.19472 8.64153 -2.16375
2 0.0725281 10.7999 -2.15432
1 1.17054 9.79426 -3.27313
1 3.18301 9.67708 -0.957869
1 1.0352 12.0018 -1.02278
1 3.23962 12.0384 -3.23112
4 6.5394 10.899 -4.3596
4 4.3596 8.7192 -4.3596
2 6.54877 8.78262 -2.1069
2 4.33699 10.8474 -2.06233
1 5.43373 9.8119 -3.25186
1 7.52996 9.82151 -1.05678
1 5.27385 11.9993 -0.851079
1 7.64477 11.954 -3.23615
4 10.899 10.899 -4.3596
4 8.7192 8.7192 -4.3596
2 10.8528 8.82295 -2.16159
2 8.65029 10.8345 -2.04574
1 9.72356 9.81245 -3.16719
1 12.0312 9.7394 -1.06056
1 9.8304 11.9972 -1.00782
1 11.942 11.9494 -3.18174
2 13.0035 13.0695 -0.19659
2 2.26865 2.3252 -0.238067
2 4.41858 0.171981 -0.00162397
2 6.65038 2.03804 0.114469
2 8.62889 13.086 -0.116438
2 10.6633 1.93726 -0.366439
2 0.19141 4.50333 -0.321153
2 2.0361 6.35724 -0.277103
2 4.30967 4.23688 -0.33372
2 6.25975 6.28279 -0.0497528
2 8.5548 4.26761 -0.414121
2 10.7386 6.38885 0.00649786
2 12.8187 8.34662 -0.291426
2 1.99895 10.7058 -0.066597
2 4.21631 8.69971 0.0211375
2 6.37689 10.7198 0.0286283
2 8.27379 8.61578 0.23061
2 11.1649 10.9542 -0.23415
1 7.69467 3.29399 1.00447
1 6.23017 10.3371 1.8324
1 6.79238 7.7815 1.45004
1 4.37543 8.7745 1.98856
1 5.79615 4.99486 1.56722
1 5.33947 6.87612 3.44758
171
Atoms. Timestep: 500
4 0 0 -8.7192
4 2.1798 0 -6.5394
4 0 2.1798 -6.5394
4 2.1798 2.1798 -8.7192
3 1.0899 1.0899 -7.6293
3 3.2697 1.0899 -5.4495
3 1.0899 3.2697 -5.4495
3 3.2697 3.2697 -7.6293
4 4.3596 0 -8.7192
4 6.5394 0 -6.5394
4 4.3596 2.1798 -6.5394
4 6.5394 2.1798 -8.7192
3 5.4495 1.0899 -7.6293
3 7.6293 1.0899 -5.4495
3 5.4495 3.2697 -5.4495
3 7.6293 3.2697 -7.6293
4 8.7192 0 -8.7192
4 10.899 0 -6.5394
4 8.7192 2.1798 -6.5394
4 10.899 2.1798 -8.7192
3 9.8091 1.0899 -7.6293
3 11.9889 1.0899 -5.4495
3 9.8091 3.2697 -5.4495
3 11.9889 3.2697 -7.6293
4 0 4.3596 -8.7192
4 2.1798 4.3596 -6.5394
4 0 6.5394 -6.5394
4 2.1798 6.5394 -8.7192
3 1.0899 5.4495 -7.6293
3 3.2697 5.4495 -5.4495
3 1.0899 7.6293 -5.4495
3 3.2697 7.6293 -7.6293
4 4.3596 4.3596 -8.7192
4 6.5394 4.3596 -6.5394
4 4.3596 6.5394 -6.5394
4 6.5394 6.5394 -8.7192
3 5.4495 5.4495 -7.6293
3 7.6293 5.4495 -5.4495
3 5.4495 7.6293 -5.4495
3 7.6293 7.6293 -7.6293
4 8.7192 4.3596 -8.7192
4 10.899 4.3596 -6.5394
4 8.7192 6.5394 -6.5394
4 10.899 6.5394 -8.7192
3 9.8091 5.4495 -7.6293
3 11.9889 5.4495 -5.4495
3 9.8091 7.6293 -5.4495
3 11.9889 7.6293 -7.6293
4 0 8.7192 -8.7192
4 2.1798 8.7192 -6.5394
4 0 10.899 -6.5394
4 2.1798 10.899 -8.7192
3 1.0899 9.8091 -7.6293
3 3.2697 9.8091 -5.4495
3 1.0899 11.9889 -5.4495
3 3.2697 11.9889 -7.6293
4 4.3596 8.7192 -8.7192
4 6.5394 8.7192 -6.5394
4 4.3596 10.899 -6.5394
4 6.5394 10.899 -8.7192
3 5.4495 9.8091 -7.6293
3 7.6293 9.8091 -5.4495
3 5.4495 11.9889 -5.4495
3 7.6293 11.9889 -7.6293
4 8.7192 8.7192 -8.7192
4 10.899 8.7192 -6.5394
4 8.7192 10.899 -6.5394
4 10.899 10.899 -8.7192
3 9.8091 9.8091 -7.6293
3 11.9889 9.8091 -5.4495
3 9.8091 11.9889 -5.4495
3 11.9889 11.9889 -7.6293
2 2.23595 0.0329229 -2.02888
2 13.1106 2.2496 -2.07115
1 1.08158 1.18912 -3.22865
1 3.29358 1.18146 -1.02735
1 1.06715 3.2809 -1.10812
1 3.28878 3.213 -3.26592
4 2.1798 2.1798 -4.3596
4 0 0 -4.3596
2 6.44909 12.9726 -2.1017
2 4.43892 2.20189 -2.22133
1 5.5335 1.003 -3.31625
1 7.54211 1.03424 -0.996823
1 5.51153 3.29184 -1.08208
1 7.59212 3.30123 -3.28995
4 6.5394 2.1798 -4.3596
4 4.3596 0 -4.3596
2 10.8492 -0.0431321 -2.14524
2 8.61852 2.18042 -2.27913
1 9.84636 1.09149 -3.28648
1 11.9668 1.1739 -1.06801
1 9.78584 3.31236 -1.18056
1 11.9694 3.42225 -3.2532
4 10.899 2.1798 -4.3596
4 8.7192 0 -4.3596
2 2.13785 4.35455 -2.23438
2 -0.0735133 6.52975 -2.19716
1 1.07237 5.4702 -3.27288
1 3.27645 5.35398 -1.13182
1 1.09136 7.55328 -1.13689
1 3.29165 7.65149 -3.24555
4 2.1798 6.5394 -4.3596
4 0 4.3596 -4.3596
4 6.5394 6.5394 -4.3596
2 6.48868 4.40329 -2.23093
2 4.36885 6.45328 -2.15027
4 4.3596 4.3596 -4.3596
1 5.48406 5.40491 -3.32959
1 7.58482 5.50475 -1.1675
1 5.33951 7.56598 -1.04021
1 7.63001 7.64298 -3.31291
4 10.899 6.5394 -4.3596
4 8.7192 4.3596 -4.3596
2 10.9447 4.51309 -2.20747
2 8.72593 6.69892 -2.07157
1 9.75216 5.56431 -3.1987
1 11.9672 5.53453 -1.11793
1 9.67951 7.76208 -0.750086
1 11.918 7.66003 -3.26185
4 2.1798 10.899 -4.3596
4 0 8.7192 -4.3596
2 2.20411 8.75281 -2.04042
2 0.0576398 10.8464 -2.19441
1 1.19007 9.79178 -3.23753
1 3.16588 9.72951 -0.917281
1 1.04081 11.989 -0.990513
1 3.25163 12.0221 -3.12437
4 6.5394 10.899 -4.3596
4 4.3596 8.7192 -4.3596
2 6.4754 8.68066 -2.13502
2 4.27564 10.8162 -2.03479
1 5.45947 9.89835 -3.25705
1 7.56943 9.78371 -1.11661
1 5.37719 11.9779 -0.856255
1 7.62616 11.9522 -3.22617
4 10.899 10.899 -4.3596
4 8.7192 8.7192 -4.3596
2 10.7403 8.73439 -2.04789
2 8.6985 10.8694 -2.07718
1 9.73513 9.76936 -3.26705
1 11.951 9.69307 -1.04171
1 9.77463 11.9638 -0.973337
1 11.9814 12.029 -3.21961
2 12.9701 13.1918 -0.133994
2 2.24784 2.39095 -0.186659
2 4.29353 0.172093 0.055069
2 6.74024 2.11028 0.183263
2 8.75081 0.0694397 -0.225368
2 10.5951 2.11338 -0.31856
2 0.0897135 4.49865 -0.276733
2 2.09999 6.33491 -0.308637
2 4.13609 4.23304 -0.149964
2 6.30706 6.09559 -0.00345731
2 8.50875 4.08273 -0.256716
2 10.8489 6.5066 -0.107797
2 12.9435 8.44585 -0.273567
2 2.03294 10.7919 -0.12008
2 4.24995 8.58479 -0.106095
2 6.45923 10.8665 0.0613957
2 8.24457 8.64337 0.425506
2 11.0598 11.011 -0.110689
1 7.69467 3.29399 1.00447
1 6.23017 10.3371 1.8324
1 6.79238 7.7815 1.45004
1 4.37543 8.7745 1.98856
1 5.79615 4.99486 1.56722
1 5.33947 6.87612 3.44758
1 7.74866 6.0611 3.14457
1 3.6413 3.58325 1.51305
1 4.41759 11.1978 3.23029
174
Atoms. Timestep: 600
4 0 0 -8.7192
4 2.1798 0 -6.5394
4 0 2.1798 -6.5394
4 2.1798 2.1798 -8.7192
3 1.0899 1.0899 -7.6293
3 3.2697 1.0899 -5.4495
3 1.0899 3.2697 -5.4495
3 3.2697 3.2697 -7.6293
4 4.3596 0 -8.7192
4 6.5394 0 -6.5394
4 4.3596 2.1798 -6.5394
4 6.5394 2.1798 -8.7192
3 5.4495 1.0899 -7.6293
3 7.6293 1.0899 -5.4495
3 5.4495 3.2697 -5.4495
3 7.6293 3.2697 -7.6293
4 8.7192 0 -8.7192
4 10.899 0 -6.5394
4 8.7192 2.1798 -6.5394
4 10.899 2.1798 -8.7192
3 9.8091 1.0899 -7.6293
3 11.9889 1.0899 -5.4495
3 9.8091 3.2697 -5.4495
3 11.9889 3.2697 -7.6293
4 0 4.3596 -8.7192
4 2.1798 4.3596 -6.5394
4 0 6.5394 -6.5394
4 2.1798 6.5394 -8.7192
3 1.0899 5.4495 -7.6293
3 3.2697 5.4495 -5.4495
3 1.0899 7.6293 -5.4495
3 3.2697 7.6293 -7.6293
4 4.3596 4.3596 -8.7192
4 6.5394 4.3596 -6.5394
4 4.3596 6.5394 -6.5394
4 6.5394 6.5394 -8.7192
3 5.4495 5.4495 -7.6293
3 7.6293 5.4495 -5.4495
3 5.4495 7.6293 -5.4495
3 7.6293 7.6293 -7.6293
4 8.7192 4.3596 -8.7192
4 10.899 4.3596 -6.5394
4 8.7192 6.5394 -6.5394
4 10.899 6.5394 -8.7192
3 9.8091 5.4495 -7.6293
3 11.9889 5.4495 -5.4495
3 9.8091 7.6293 -5.4495
3 11.9889 7.6293 -7.6293
4 0 8.7192 -8.7192
4 2.1798 8.7192 -6.5394
4 0 10.899 -6.5394
4 2.1798 10.899 -8.7192
3 1.0899 9.8091 -7.6293
3 3.2697 9.8091 -5.4495
3 1.0899 11.9889 -5.4495
3 3.2697 11.9889 -7.6293
4 4.3596 8.7192 -8.7192
4 6.5394 8.7192 -6.5394
4 4.3596 10.899 -6.5394
4 6.5394 10.899 -8.7192
3 5.4495 9.8091 -7.6293
3 7.6293 9.8091 -5.4495
3 5.4495 11.9889 -5.4495
3 7.6293 11.9889 -7.6293
4 8.7192 8.7192 -8.7192
4 10.899 8.7192 -6.5394
4 8.7192 10.899 -6.5394
4 10.899 10.899 -8.7192
3 9.8091 9.8091 -7.6293
3 11.9889 9.8091 -5.4495
3 9.8091 11.9889 -5.4495
3 11.9889 11.9889 -7.6293
2 2.17 0.0251854 -2.12305
2 -0.0670049 2.34358 -2.15745
1 1.04056 1.14059 -3.20755
1 3.20129 1.13953 -1.06912
1 0.993533 3.35397 -1.14169
1 3.26501 3.25469 -3.33553
4 2.1798 2.1798 -4.3596
4 0 0 -4.3596
2 6.42677 13.0043 -2.10709
2 4.39684 2.07135 -2.17808
1 5.47382 1.08832 -3.29722
1 7.51114 1.04923 -0.977157
1 5.42901 3.28055 -1.08982
1 7.54941 3.29073 -3.29545
4 6.5394 2.1798 -4.3596
4 4.3596 0 -4.3596
2 10.8392 13.0302 -2.0856
2 8.68907 2.05257 -2.26995
1 9.80274 1.02345 -3.25021
1 11.8934 1.08669 -1.09844
1 9.74144 3.36414 -1.15461
1 11.9686 3.40355 -3.22769
4 10.899 2.1798 -4.3596
4 8.7192 0 -4.3596
2 2.26179 4.31544 -2.18643
2 12.999 6.60625 -2.28549
1 1.11472 5.48278 -3.29864
1 3.23829 5.29818 -1.11042
1 1.12685 7.58706 -1.10895
1 3.26373 7.59927 -3.19842
4 2.1798 6.5394 -4.3596
4 0 4.3596 -4.3596
4 6.5394 6.5394 -4.3596
2 6.47184 4.39976 -2.21506
2 4.33659 6.55579 -2.18299
4 4.3596 4.3596 -4.3596
1 5.41897 5.4997 -3.30463
1 7.57656 5.38627 -1.10104
1 5.3445 7.57711 -1.03127
1 7.61179 7.6845 -3.27849
4 10.899 6.5394 -4.3596
4 8.7192 4.3596 -4.3596
2 10.8851 4.5243 -2.1989
2 8.6976 6.64356 -2.12715
1 9.78387 5.5005 -3.2521
1 11.936 5.56447 -1.09775
1 9.68878 7.64952 -0.694284
1 11.8961 7.62042 -3.27241
4 2.1798 10.899 -4.3596
4 0 8.7192 -4.3596
2 2.17428 8.72008 -2.11129
2 -0.0536515 10.9272 -2.1456
1 1.137 9.79402 -3.21353
1 3.20593 9.80808 -0.928617
1 1.03918 12.009 -0.955825
1 3.27589 11.9804 -3.08764
4 6.5394 10.899 -4.3596
4 4.3596 8.7192 -4.3596
2 6.39882 8.59465 -2.25354
2 4.27775 10.9042 -2.00123
1 5.39377 9.87533 -3.25325
1 7.52235 9.7868 -0.968555
1 5.43911 11.966 -0.861143
1 7.62406 12.0251 -3.24029
4 10.899 10.899 -4.3596
4 8.7192 8.7192 -4.3596
2 10.7009 8.60698 -2.00214
2 8.76131 10.9164 -2.2051
1 9.84083 9.76465 -3.34807
1 11.9191 9.74776 -1.02422
1 9.75334 11.9302 -0.998724
1 12.0311 12.0437 -3.27855
2 13.0473 0.0991534 -0.122071
2 2.12105 2.39978 -0.14572
2 4.29952 0.0303089 0.0408066
2 6.61289 2.26602 0.00963372
2 8.89593 0.115743 -0.125092
2 10.7065 2.19122 -0.234967
2 -0.0550521 4.51616 -0.189183
2 2.12208 6.38971 -0.281136
2 4.07929 4.02472 -0.173202
2 6.39752 6.25579 0.190519
2 8.45209 4.1804 -0.277099
2 11.1019 6.78717 -0.0322851
2 12.9796 8.54394 -0.0696323
2 2.05607 10.9117 -0.112199
2 4.2168 8.56197 0.0317939
2 6.62872 10.9113 -0.00487498
2 8.20868 8.65756 0.373916
2 10.9183 11.0006 -0.0868274
1 7.69467 3.29399 1.00447
1 6.23017 10.3371 1.8324
1 6.79238 7.7815 1.45004
1 4.37543 8.7745 1.98856
1 5.79615 4.99486 1.56722
1 5.33947 6.87612 3.44758
1 3.6413 3.58325 1.51305
1 4.41759 11.1978 3.23029
1 4.86293 1.85563 0.777669
1 12.1353 7.6671 1.43412
1 1.60008 2.56074 1.65961
1 2.65044 12.6452 2.98198
176
Atoms. Timestep: 700
4 0 0 -8.7192
4 2.1798 0 -6.5394
4 0 2.1798 -6.5394
4 2.1798 2.1798 -8.7192
3 1.0899 1.0899 -7.6293
3 3.2697 1.0899 -5.4495
3 1.0899 3.2697 -5.4495
3 3.2697 3.2697 -7.6293
4 4.3596 0 -8.7192
4 6.5394 0 -6.5394
4 4.3596 2.1798 -6.5394
4 6.5394 2.1798 -8.7192
3 5.4495 1.0899 -7.6293
3 7.6293 1.0899 -5.4495
3 5.4495 3.2697 -5.4495
3 7.6293 3.2697 -7.6293
4 8.7192 0 -8.7192
4 10.899 0 -6.5394
4 8.7192 2.1798 -6.5394
4 10.899 2.1798 -8.7192
3 9.8091 1.0899 -7.6293
3 11.9889 1.0899 -5.4495
3 9.8091 3.2697 -5.4495