ITEM: TIMESTEP
100
ITEM: NUMBER OF ATOMS
588
ITEM: BOX BOUNDS pp pp ff
0.0000000000000000e+00 1.8496216339565233e+01
0.0000000000000000e+00 2.1357590965275090e+01
-1.5102097401354557e+01 1.5102097401354557e+01
ITEM: ATOMS id type xs ys zs
504 4 0.0833333 0.125 0.0625
556 3 0.166667 4.15861e-17 0
557 4 0.166667 4.15861e-17 0.0625
576 3 0 0 0
577 3 0 0.0833333 0.0833333
578 4 0 0 0.0625
580 3 0.166667 0.0833333 0.0833333
481 4 0.416667 0.125 0.0625
482 4 0.25 0.125 0.0625
558 3 0.333333 0 0
559 3 0.333333 0.0833333 0.0833333
560 4 0.333333 0 0.0625
470 4 0.583333 0.125 0.0625
542 4 0.5 0 0.0625
543 3 0.666667 0 0
544 3 0.666667 0.0833333 0.0833333
545 4 0.666667 0 0.0625
562 3 0.5 0.0833333 0.0833333
467 4 0.916667 0.125 0.0625
468 3 0.75 0.125 0
469 4 0.75 0.125 0.0625
540 3 0.833333 4.15861e-17 0
541 4 0.833333 0 0.0625
547 3 0.833333 0.0833333 0.0833333
420 4 0.0833333 0.375 0.0625
505 4 0 0.25 0.0625
507 3 0.0833333 0.208333 0.0833333
508 3 0.166667 0.333333 0.0833333
509 4 0.166667 0.25 0.0625
527 3 0 0.333333 0.0833333
400 4 0.416667 0.375 0.0625
419 4 0.25 0.375 0.0625
483 4 0.333333 0.25 0.0625
485 3 0.416667 0.208333 0.0833333
506 3 0.25 0.208333 0.0833333
513 3 0.333333 0.333333 0.0833333
399 4 0.583333 0.375 0.0625
471 4 0.666667 0.25 0.0625
484 3 0.583333 0.208333 0.0833333
486 3 0.5 0.333333 0.0833333
487 4 0.5 0.25 0.0625
491 3 0.666667 0.333333 0.0833333
393 4 0.916667 0.375 0.0625
394 4 0.75 0.375 0.0625
472 3 0.916667 0.208333 0.0833333
473 3 0.75 0.208333 0.0833333
474 3 0.833333 0.333333 0.0833333
475 4 0.833333 0.25 0.0625
418 3 0.166667 0.5 0
421 4 0.166667 0.5 0.0625
443 3 0 0.5 0
444 3 0.0833333 0.458333 0.0833333
445 3 0 0.583333 0.0833333
446 4 0 0.5 0.0625
449 3 0.166667 0.583333 0.0833333
422 3 0.333333 0.5 0
423 3 0.416667 0.458333 0.0833333
424 3 0.25 0.458333 0.0833333
425 3 0.333333 0.583333 0.0833333
426 4 0.333333 0.5 0.0625
398 3 0.5 0.5 0
401 4 0.5 0.5 0.0625
403 3 0.583333 0.458333 0.0833333
404 3 0.666667 0.583333 0.0833333
405 4 0.666667 0.5 0.0625
430 3 0.5 0.583333 0.0833333
395 4 0.833333 0.5 0.0625
396 3 0.916667 0.458333 0.0833333
402 3 0.75 0.458333 0.0833333
409 3 0.833333 0.583333 0.0833333
361 3 0.0833333 0.625 0
362 4 0.0833333 0.625 0.0625
363 4 0 0.75 0.0625
365 3 0.0833333 0.708333 0.0833333
367 4 0.166667 0.75 0.0625
339 3 0.416667 0.625 0
340 4 0.416667 0.625 0.0625
341 4 0.25 0.625 0.0625
342 4 0.333333 0.75 0.0625
344 3 0.416667 0.708333 0.0833333
364 3 0.25 0.708333 0.0833333
328 4 0.583333 0.625 0.0625
329 4 0.666667 0.75 0.0625
343 3 0.583333 0.708333 0.0833333
346 4 0.5 0.75 0.0625
326 4 0.916667 0.625 0.0625
327 4 0.75 0.625 0.0625
330 3 0.916667 0.708333 0.0833333
331 3 0.75 0.708333 0.0833333
333 4 0.833333 0.75 0.0625
319 4 0.0833333 0.875 0.0625
324 3 0.0833333 0.958333 0.0833333
366 3 0.166667 0.833333 0.0833333
383 3 0 0.833333 0.0833333
313 4 0.416667 0.875 0.0625
318 4 0.25 0.875 0.0625
320 3 0.416667 0.958333 0.0833333
321 3 0.25 0.958333 0.0833333
371 3 0.333333 0.833333 0.0833333
312 4 0.583333 0.875 0.0625
315 3 0.583333 0.958333 0.0833333
345 3 0.5 0.833333 0.0833333
350 3 0.666667 0.833333 0.0833333
308 4 0.916667 0.875 0.0625
309 4 0.75 0.875 0.0625
310 3 0.916667 0.958333 0.0833333
314 3 0.75 0.958333 0.0833333
332 3 0.833333 0.833333 0.0833333
2 3 0 0 0.25
14 3 0.166667 0 0.25
100 4 0 0.166667 0.229167
185 3 0.0833333 0.125 0.25
206 3 0 0.166667 0.166667
579 4 0 0.0833333 0.145833
582 3 0.0833333 0.0416667 0.166667
583 3 0.166667 0.166667 0.166667
584 4 0.166667 0.0833333 0.145833
586 4 0.0833333 0.0416667 0.229167
587 4 0.166667 0.166667 0.229167
7 3 0.333333 0 0.25
245 4 0.333333 0.166667 0.229167
261 3 0.25 0.125 0.25
279 3 0.416667 0.125 0.25
561 4 0.333333 0.0833333 0.145833
564 3 0.416667 0.0416667 0.166667
568 4 0.416667 0.0416667 0.229167
581 3 0.25 0.0416667 0.166667
585 4 0.25 0.0416667 0.229167
588 3 0.333333 0.166667 0.166667
24 3 0.666667 2.0793e-17 0.25
42 3 0.5 2.0793e-17 0.25
546 4 0.666667 0.0833333 0.145833
563 3 0.583333 0.0416667 0.166667
565 3 0.5 0.166667 0.166667
566 4 0.5 0.0833333 0.145833
567 4 0.583333 0.0416667 0.229167
569 4 0.5 0.166667 0.229167
570 3 0.666667 0.166667 0.166667
572 3 0.583333 0.125 0.25
574 4 0.666667 0.166667 0.229167
62 3 0.833333 0 0.25
548 3 0.916667 0.0416667 0.166667
549 3 0.75 0.0416667 0.166667
550 3 0.833333 0.166667 0.166667
551 4 0.833333 0.0833333 0.145833
552 4 0.916667 0.0416667 0.229167
553 4 0.75 0.0416667 0.229167
554 4 0.833333 0.166667 0.229167
555 3 0.916667 0.125 0.25
571 3 0.75 0.125 0.25
65 3 0.166667 0.25 0.25
169 3 0 0.25 0.25
511 4 0.0833333 0.208333 0.145833
512 4 0.166667 0.333333 0.145833
528 3 0.0833333 0.291667 0.166667
530 4 0 0.333333 0.145833
531 4 0.0833333 0.291667 0.229167
535 3 0.0833333 0.375 0.25
259 3 0.333333 0.25 0.25
489 4 0.416667 0.208333 0.145833
510 4 0.25 0.208333 0.145833
514 3 0.416667 0.291667 0.166667
515 3 0.25 0.291667 0.166667
517 4 0.333333 0.333333 0.145833
518 4 0.416667 0.291667 0.229167
519 4 0.25 0.291667 0.229167
523 3 0.416667 0.375 0.25
534 3 0.25 0.375 0.25
209 3 0.5 0.25 0.25
488 4 0.583333 0.208333 0.145833
490 4 0.5 0.333333 0.145833
493 3 0.583333 0.291667 0.166667
495 4 0.666667 0.333333 0.145833
497 4 0.583333 0.291667 0.229167
522 3 0.583333 0.375 0.25
573 3 0.666667 0.25 0.25
476 4 0.916667 0.208333 0.145833
477 4 0.75 0.208333 0.145833
478 4 0.833333 0.333333 0.145833
479 3 0.916667 0.291667 0.166667
480 4 0.916667 0.291667 0.229167
492 3 0.75 0.291667 0.166667
496 4 0.75 0.291667 0.229167
500 3 0.916667 0.375 0.25
501 3 0.75 0.375 0.25
575 3 0.833333 0.25 0.25
447 4 0.0833333 0.458333 0.145833
448 4 0 0.583333 0.145833
451 3 0.0833333 0.541667 0.166667
453 4 0.166667 0.583333 0.145833
455 4 0.0833333 0.541667 0.229167
529 3 0 0.416667 0.166667
532 4 0 0.416667 0.229167
533 3 0.166667 0.416667 0.166667
536 3 0.166667 0.5 0.25
537 4 0.166667 0.416667 0.229167
539 3 0 0.5 0.25
427 4 0.416667 0.458333 0.145833
428 4 0.25 0.458333 0.145833
429 4 0.333333 0.583333 0.145833
432 3 0.416667 0.541667 0.166667
436 4 0.416667 0.541667 0.229167
450 3 0.25 0.541667 0.166667
454 4 0.25 0.541667 0.229167
516 3 0.333333 0.416667 0.166667
520 4 0.333333 0.416667 0.229167
538 3 0.333333 0.5 0.25
407 4 0.583333 0.458333 0.145833
408 4 0.666667 0.583333 0.145833
431 3 0.583333 0.541667 0.166667
434 4 0.5 0.583333 0.145833
435 4 0.583333 0.541667 0.229167
494 3 0.666667 0.416667 0.166667
498 4 0.666667 0.416667 0.229167
521 3 0.5 0.416667 0.166667
524 3 0.5 0.5 0.25
525 4 0.5 0.416667 0.229167
526 3 0.666667 0.5 0.25
397 4 0.916667 0.458333 0.145833
406 4 0.75 0.458333 0.145833
410 3 0.916667 0.541667 0.166667
411 3 0.75 0.541667 0.166667
413 4 0.833333 0.583333 0.145833
414 4 0.916667 0.541667 0.229167
415 4 0.75 0.541667 0.229167
499 3 0.833333 0.416667 0.166667
502 3 0.833333 0.5 0.25
503 4 0.833333 0.416667 0.229167
369 4 0.0833333 0.708333 0.145833
384 3 0.0833333 0.791667 0.166667
387 4 0.0833333 0.791667 0.229167
452 3 0.166667 0.666667 0.166667
456 4 0.166667 0.666667 0.229167
462 3 0 0.666667 0.166667
463 3 0.0833333 0.625 0.25
464 3 0 0.75 0.25
465 4 0 0.666667 0.229167
466 3 0.166667 0.75 0.25
38 1 0.334962 0.748833 0.247756
348 4 0.416667 0.708333 0.145833
368 4 0.25 0.708333 0.145833
372 3 0.416667 0.791667 0.166667
373 3 0.25 0.791667 0.166667
376 4 0.416667 0.791667 0.229167
377 4 0.25 0.791667 0.229167
457 3 0.333333 0.666667 0.166667
458 3 0.416667 0.625 0.25
459 3 0.25 0.625 0.25
460 4 0.333333 0.666667 0.229167
347 4 0.583333 0.708333 0.145833
352 3 0.583333 0.791667 0.166667
356 4 0.583333 0.791667 0.229167
433 3 0.5 0.666667 0.166667
437 4 0.5 0.666667 0.229167
438 3 0.666667 0.666667 0.166667
440 3 0.583333 0.625 0.25
441 3 0.666667 0.75 0.25
442 4 0.666667 0.666667 0.229167
461 3 0.5 0.75 0.25
28 1 0.834598 0.752879 0.252702
334 4 0.916667 0.708333 0.145833
335 4 0.75 0.708333 0.145833
337 3 0.916667 0.791667 0.166667
338 4 0.916667 0.791667 0.229167
351 3 0.75 0.791667 0.166667
355 4 0.75 0.791667 0.229167
412 3 0.833333 0.666667 0.166667
416 4 0.833333 0.666667 0.229167
417 3 0.916667 0.625 0.25
439 3 0.75 0.625 0.25
325 4 0.0833333 0.958333 0.145833
370 4 0.166667 0.833333 0.145833
385 3 0 0.916667 0.166667
386 4 0 0.833333 0.145833
388 4 0 0.916667 0.229167
389 3 0.166667 0.916667 0.166667
391 3 0.0833333 0.875 0.25
392 4 0.166667 0.916667 0.229167
322 4 0.416667 0.958333 0.145833
323 4 0.25 0.958333 0.145833
374 3 0.333333 0.916667 0.166667
375 4 0.333333 0.833333 0.145833
378 4 0.333333 0.916667 0.229167
381 3 0.416667 0.875 0.25
390 3 0.25 0.875 0.25
317 4 0.583333 0.958333 0.145833
349 4 0.5 0.833333 0.145833
353 3 0.666667 0.916667 0.166667
354 4 0.666667 0.833333 0.145833
357 4 0.666667 0.916667 0.229167
379 3 0.5 0.916667 0.166667
380 3 0.583333 0.875 0.25
382 4 0.5 0.916667 0.229167
1 1 0.913195 0.878084 0.252559
311 4 0.916667 0.958333 0.145833
316 4 0.75 0.958333 0.145833
336 4 0.833333 0.833333 0.145833
358 3 0.833333 0.916667 0.166667
359 3 0.75 0.875 0.25
360 4 0.833333 0.916667 0.229167
207 2 0.0839923 0.12937 0.311572
260 2 0.170419 -0.000818354 0.313463
280 1 -0.00329107 0.0824873 0.331299
281 2 0.00482923 -0.00165045 0.309718
282 2 -9.44844e-05 0.0823213 0.394248
283 1 0.166712 0.0813996 0.331296
285 1 0.0874303 0.0401146 0.416067
286 1 0.166748 0.167145 0.416132
287 2 0.165283 0.0813491 0.396711
297 1 -0.00204792 0.163142 0.415711
182 2 0.422046 0.128841 0.313391
183 2 0.252505 0.123323 0.311934
262 1 0.333935 0.085412 0.333975
263 2 0.331672 0.0044364 0.310567
264 2 0.330325 0.0814988 0.395758
267 1 0.419604 0.0433985 0.415407
284 1 0.24903 0.0435148 0.418916
291 1 0.331009 0.164464 0.416919
171 2 0.583788 0.123773 0.310221
246 2 0.505592 0.00250326 0.309613
247 1 0.667475 0.0852687 0.331476
248 2 0.667391 -0.00479608 0.312048
249 2 0.671751 0.0842319 0.397474
265 1 0.504976 0.0840765 0.331079
266 1 0.584499 0.0400426 0.416806
268 1 0.502126 0.168412 0.414721
269 2 0.505767 0.0866245 0.39406
273 1 0.670588 0.163339 0.415463
168 2 0.918361 0.122227 0.315282
170 2 0.74751 0.121881 0.311021
244 2 0.833503 0.00258486 0.310596
250 1 0.833734 0.0857713 0.335511
251 1 0.915828 0.0393896 0.415576
252 1 0.749961 0.0408417 0.41844
253 1 0.834796 0.168936 0.41641
254 2 0.827722 0.0836418 0.393466
121 2 0.087829 0.376414 0.309822
208 2 -0.00617436 0.251158 0.31412
211 1 0.078415 0.208431 0.336269
212 1 0.164171 0.333484 0.333176
213 2 0.168702 0.249681 0.314649
215 2 0.0813724 0.207613 0.396978
216 2 0.162472 0.331272 0.394266
231 1 -0.00344615 0.335352 0.331099
232 1 0.0824403 0.289893 0.416666
234 2 -0.00327438 0.334689 0.392234
102 2 0.418383 0.377828 0.316192
120 2 0.249325 0.373965 0.309631
184 2 0.334275 0.25173 0.315535
187 1 0.420404 0.206774 0.334833
191 2 0.411962 0.20531 0.398997
210 1 0.24734 0.208799 0.334687
214 2 0.253514 0.207123 0.398845
217 1 0.333613 0.330612 0.332739
218 1 0.417449 0.287619 0.418888
219 1 0.246659 0.293666 0.415374
221 2 0.330588 0.328102 0.395112
101 2 0.579163 0.370792 0.310775
172 2 0.670833 0.25165 0.312834
186 1 0.588151 0.205909 0.335495
188 1 0.499023 0.333052 0.331856
189 2 0.504893 0.247353 0.315768
190 2 0.582136 0.208728 0.397053
192 2 0.505332 0.327897 0.397681
193 1 0.669187 0.33453 0.334128
195 1 0.588801 0.290186 0.41489
197 2 0.672885 0.329546 0.397178
95 2 0.911888 0.371278 0.314423
96 2 0.750594 0.376348 0.309834
173 1 0.914389 0.208208 0.332545
174 1 0.753369 0.211782 0.33186
175 1 0.833364 0.334781 0.331815
176 2 0.831729 0.248486 0.310029
177 2 0.91179 0.21076 0.398432
178 2 0.752907 0.210629 0.398456
179 2 0.829387 0.332906 0.394082
180 1 0.919781 0.293213 0.415033
194 1 0.753764 0.289571 0.417697
122 2 0.168303 0.49604 0.314333
144 1 0.0846916 0.461606 0.332768
145 1 0.000117996 0.580199 0.335141
146 2 -0.000766906 0.50119 0.311895
147 2 0.0878963 0.461235 0.398157
148 2 -3.80069e-05 0.581618 0.39436
149 1 0.165265 0.58201 0.330677
151 1 0.0870955 0.543109 0.414139
153 2 0.163517 0.583579 0.392285
233 1 0.00229656 0.418828 0.418606
237 1 0.168019 0.41805 0.415251
123 1 0.415402 0.460516 0.335721
124 1 0.253332 0.459466 0.331971
125 1 0.329848 0.584149 0.332702
126 2 0.331724 0.496879 0.311086
127 2 0.42228 0.461488 0.395989
128 2 0.246968 0.458736 0.394627
129 2 0.328931 0.582439 0.394387
132 1 0.414344 0.539651 0.417321
150 1 0.24788 0.538579 0.416029
220 1 0.334006 0.416554 0.414464
103 2 0.498065 0.498192 0.312156
105 1 0.578959 0.459711 0.334403
106 1 0.665525 0.586308 0.330951
107 2 0.664442 0.50023 0.314575
109 2 0.585167 0.463015 0.393608
110 2 0.664382 0.585152 0.397961
130 1 0.500681 0.581379 0.331908
131 1 0.578653 0.544105 0.41805
134 2 0.49728 0.582111 0.396374
196 1 0.668907 0.419494 0.418495
225 1 0.500671 0.415706 0.416627
97 2 0.833237 0.500984 0.30972
98 1 0.914042 0.455366 0.334809
99 2 0.9202 0.461043 0.397337
104 1 0.75215 0.461693 0.335313
108 2 0.746941 0.462305 0.393772
111 1 0.83286 0.582495 0.33524
112 1 0.917758 0.544981 0.418271
113 1 0.753435 0.539783 0.416901
115 2 0.834472 0.584273 0.398613
201 1 0.835326 0.415593 0.417574
63 2 0.0835674 0.62662 0.314595
64 2 -0.00237299 0.753264 0.309329
67 1 0.0837466 0.711969 0.33301
69 2 0.171323 0.751187 0.312217
71 2 0.0840934 0.70517 0.394407
86 1 0.0859512 0.7902 0.416125
152 1 0.166771 0.66458 0.415755
163 1 0.0011869 0.663918 0.419199
39 2 0.419314 0.630109 0.311478
40 2 0.248273 0.621127 0.309643
41 2 0.330519 0.752712 0.308604
44 1 0.412638 0.711127 0.334465
48 2 0.415589 0.709293 0.398946
66 1 0.249577 0.709212 0.330997
70 2 0.252157 0.712478 0.393112
74 1 0.41781 0.789096 0.419612
75 1 0.252814 0.794256 0.41514
157 1 0.329046 0.663207 0.415946
26 2 0.583911 0.624377 0.3107
27 2 0.670748 0.747005 0.3117
43 1 0.582173 0.709601 0.331434
46 2 0.499121 0.748308 0.311142
47 2 0.586413 0.709124 0.397849
52 1 0.580405 0.788907 0.416379
133 1 0.49847 0.668825 0.415214
138 1 0.665252 0.664755 0.415797
23 2 0.917497 0.620759 0.310553
25 2 0.751091 0.620885 0.313971
29 1 0.916825 0.709721 0.334486
30 1 0.747578 0.706108 0.333025
32 2 0.831611 0.747915 0.314144
33 2 0.912976 0.707698 0.397602
34 2 0.744809 0.703288 0.395328
36 1 0.912923 0.793201 0.414516
51 1 0.749759 0.793017 0.418701
114 1 0.834025 0.664409 0.415117
16 2 0.0814466 0.875091 0.313906
21 1 0.0879743 0.956889 0.333859
22 2 0.0840591 0.95428 0.393552
68 1 0.168548 0.831477 0.332315
72 2 0.16963 0.829124 0.396332
85 1 -0.0035207 0.836929 0.33186
87 1 0.00363565 0.917192 0.41669
88 2 -0.0011058 0.830333 0.392487
91 1 0.165837 0.915685 0.418204
9 2 0.422645 0.878993 0.311294
15 2 0.248319 0.871669 0.315998
17 1 0.417898 0.959132 0.332181
18 1 0.251311 0.95675 0.334933
19 2 0.411711 0.958742 0.392901
20 2 0.249897 0.955508 0.397614
73 1 0.336915 0.832322 0.333087
76 1 0.328978 0.917047 0.418719
77 2 0.334494 0.836686 0.394908
8 2 0.580679 0.878781 0.31109
11 1 0.586341 0.957802 0.33493
13 2 0.587503 0.961928 0.39518
45 1 0.503555 0.831335 0.335289
49 2 0.503703 0.830238 0.398056
50 1 0.668744 0.833274 0.334387
53 1 0.666448 0.918403 0.415195
54 2 0.671168 0.834545 0.396418
81 1 0.49694 0.916073 0.417764
3 2 0.918588 0.877423 0.315614
4 2 0.753948 0.873333 0.310367
5 1 0.914662 0.960324 0.33501
6 2 0.913063 0.956619 0.393243
10 1 0.751873 0.958436 0.331171
12 2 0.754975 0.962934 0.392285
31 1 0.835588 0.833612 0.332768
35 2 0.833782 0.833806 0.396845
58 1 0.831917 0.919723 0.415717
289 2 0.0796045 0.042783 0.478366
290 2 0.170987 0.162638 0.478469
298 1 0.0800903 0.126129 0.501392
300 2 -0.00425947 0.168428 0.479999
305 1 0.163938 0.000716097 0.498117
307 1 0.00051465 -0.000808618 0.496967
271 2 0.415074 0.0412584 0.477994
288 2 0.254944 0.0365961 0.482992
292 1 0.415708 0.124317 0.500969
293 1 0.247049 0.121608 0.501685
295 2 0.336587 0.169258 0.481553
306 1 0.335955 -0.00116178 0.49869
270 2 0.587243 0.0408438 0.482219
272 2 0.497707 0.168121 0.484409
275 1 0.583636 0.122749 0.501884
277 2 0.666266 0.161615 0.478944
303 1 0.496908 0.00373499 0.498911
304 1 0.669861 0.00346878 0.500406
255 2 0.916728 0.0457501 0.47969
256 2 0.754125 0.0398633 0.483194
257 2 0.838352 0.164011 0.480544
258 1 0.920205 0.127891 0.500275
274 1 0.751277 0.123672 0.502414
302 1 0.836559 0.00315643 0.498452
235 2 0.0810919 0.288253 0.482771
239 1 0.0811295 0.372141 0.500858
299 1 -0.00349825 0.253196 0.497724
301 1 0.165694 0.245587 0.498308
222 2 0.416509 0.291558 0.477858
223 2 0.248232 0.294286 0.479376
227 1 0.416821 0.375527 0.497241
238 1 0.253181 0.373566 0.501376
294 1 0.333004 0.252127 0.500003
199 2 0.5877 0.296215 0.483466
226 1 0.581093 0.379173 0.497195
276 1 0.665968 0.248933 0.496695
296 1 0.497477 0.251624 0.501434
181 2 0.912181 0.292229 0.478258
198 2 0.753592 0.291175 0.48221
202 1 0.914692 0.372263 0.501123
203 1 0.748608 0.373298 0.498215
278 1 0.835655 0.250431 0.499871
155 2 0.0821929 0.545103 0.476764
236 2 -0.00606395 0.418427 0.481747
240 1 0.16463 0.496577 0.497292
241 2 0.168786 0.417118 0.482813
243 1 -0.00393864 0.497387 0.501958
136 2 0.411996 0.542459 0.478674
154 2 0.247597 0.538098 0.482135
224 2 0.32891 0.414116 0.479144
242 1 0.329191 0.502306 0.498738
135 2 0.576807 0.542697 0.482963
200 2 0.670436 0.419574 0.47809
228 1 0.497076 0.497915 0.501821
229 2 0.49607 0.420144 0.483646
230 1 0.663921 0.502434 0.49745
116 2 0.921765 0.540342 0.479523
117 2 0.751784 0.537546 0.477951
204 1 0.834828 0.501471 0.497697
205 2 0.830196 0.417867 0.47975
89 2 0.0845752 0.787684 0.476727
156 2 0.162455 0.66649 0.481041
164 1 0.0852312 0.628252 0.499559
165 1 0.00191945 0.747347 0.498146
166 2 0.00518015 0.665557 0.480745
167 1 0.165356 0.750801 0.496658
78 2 0.413894 0.786018 0.480514
79 2 0.250393 0.793918 0.482218
158 1 0.41573 0.621512 0.498577
159 1 0.245768 0.628266 0.499619
160 1 0.329632 0.74793 0.502506
161 2 0.330094 0.670366 0.483227
56 2 0.580059 0.788231 0.478613
137 2 0.504356 0.662162 0.479773
140 1 0.584406 0.627843 0.500951
141 1 0.667892 0.750171 0.500309
142 2 0.664204 0.670574 0.481336
162 1 0.503949 0.748836 0.500631
37 2 0.920615 0.793617 0.483449
55 2 0.746278 0.787752 0.47949
118 2 0.832471 0.668213 0.481451
119 1 0.91602 0.625885 0.498501
139 1 0.748416 0.624221 0.50224
143 1 0.837352 0.751757 0.500175
90 2 -0.00342911 0.918345 0.477249
93 1 0.0818945 0.87723 0.497818
94 2 0.163092 0.91752 0.482
80 2 0.329336 0.918767 0.480491
83 1 0.412439 0.872616 0.498423
92 1 0.248798 0.877945 0.499211
57 2 0.66996 0.915147 0.480724
82 1 0.580247 0.877539 0.497544
84 2 0.501753 0.916199 0.483092
59 1 0.91569 0.873013 0.502473
60 1 0.754342 0.870906 0.500892
61 2 0.837987 0.918438 0.480057
ITEM: TIMESTEP
200
ITEM: NUMBER OF ATOMS
588
ITEM: BOX BOUNDS pp pp ff
0.0000000000000000e+00 1.8496216339565233e+01
0.0000000000000000e+00 2.1357590965275090e+01
-1.5102097401354557e+01 1.5102097401354557e+01
ITEM: ATOMS id type xs ys zs
504 4 0.0833333 0.125 0.0625
556 3 0.166667 4.15861e-17 0
557 4 0.166667 4.15861e-17 0.0625
576 3 0 0 0
577 3 0 0.0833333 0.0833333
578 4 0 0 0.0625
580 3 0.166667 0.0833333 0.0833333
481 4 0.416667 0.125 0.0625
482 4 0.25 0.125 0.0625
558 3 0.333333 0 0
559 3 0.333333 0.0833333 0.0833333
560 4 0.333333 0 0.0625
470 4 0.583333 0.125 0.0625
542 4 0.5 0 0.0625
543 3 0.666667 0 0
544 3 0.666667 0.0833333 0.0833333
545 4 0.666667 0 0.0625
562 3 0.5 0.0833333 0.0833333
467 4 0.916667 0.125 0.0625
468 3 0.75 0.125 0
469 4 0.75 0.125 0.0625
540 3 0.833333 4.15861e-17 0
541 4 0.833333 0 0.0625
547 3 0.833333 0.0833333 0.0833333
420 4 0.0833333 0.375 0.0625
505 4 0 0.25 0.0625
507 3 0.0833333 0.208333 0.0833333
508 3 0.166667 0.333333 0.0833333
509 4 0.166667 0.25 0.0625
527 3 0 0.333333 0.0833333
400 4 0.416667 0.375 0.0625
419 4 0.25 0.375 0.0625
483 4 0.333333 0.25 0.0625
485 3 0.416667 0.208333 0.0833333
506 3 0.25 0.208333 0.0833333
513 3 0.333333 0.333333 0.0833333
399 4 0.583333 0.375 0.0625
471 4 0.666667 0.25 0.0625
484 3 0.583333 0.208333 0.0833333
486 3 0.5 0.333333 0.0833333
487 4 0.5 0.25 0.0625
491 3 0.666667 0.333333 0.0833333
393 4 0.916667 0.375 0.0625
394 4 0.75 0.375 0.0625
472 3 0.916667 0.208333 0.0833333
473 3 0.75 0.208333 0.0833333
474 3 0.833333 0.333333 0.0833333
475 4 0.833333 0.25 0.0625
418 3 0.166667 0.5 0
421 4 0.166667 0.5 0.0625
443 3 0 0.5 0
444 3 0.0833333 0.458333 0.0833333
445 3 0 0.583333 0.0833333
446 4 0 0.5 0.0625
449 3 0.166667 0.583333 0.0833333
422 3 0.333333 0.5 0
423 3 0.416667 0.458333 0.0833333
424 3 0.25 0.458333 0.0833333
425 3 0.333333 0.583333 0.0833333
426 4 0.333333 0.5 0.0625
398 3 0.5 0.5 0
401 4 0.5 0.5 0.0625
403 3 0.583333 0.458333 0.0833333
404 3 0.666667 0.583333 0.0833333
405 4 0.666667 0.5 0.0625
430 3 0.5 0.583333 0.0833333
395 4 0.833333 0.5 0.0625
396 3 0.916667 0.458333 0.0833333
402 3 0.75 0.458333 0.0833333
409 3 0.833333 0.583333 0.0833333
361 3 0.0833333 0.625 0
362 4 0.0833333 0.625 0.0625
363 4 0 0.75 0.0625
365 3 0.0833333 0.708333 0.0833333
367 4 0.166667 0.75 0.0625
339 3 0.416667 0.625 0
340 4 0.416667 0.625 0.0625
341 4 0.25 0.625 0.0625
342 4 0.333333 0.75 0.0625
344 3 0.416667 0.708333 0.0833333
364 3 0.25 0.708333 0.0833333
328 4 0.583333 0.625 0.0625
329 4 0.666667 0.75 0.0625
343 3 0.583333 0.708333 0.0833333
346 4 0.5 0.75 0.0625
326 4 0.916667 0.625 0.0625
327 4 0.75 0.625 0.0625
330 3 0.916667 0.708333 0.0833333
331 3 0.75 0.708333 0.0833333
333 4 0.833333 0.75 0.0625
319 4 0.0833333 0.875 0.0625
324 3 0.0833333 0.958333 0.0833333
366 3 0.166667 0.833333 0.0833333
383 3 0 0.833333 0.0833333
313 4 0.416667 0.875 0.0625
318 4 0.25 0.875 0.0625
320 3 0.416667 0.958333 0.0833333
321 3 0.25 0.958333 0.0833333
371 3 0.333333 0.833333 0.0833333
312 4 0.583333 0.875 0.0625
315 3 0.583333 0.958333 0.0833333
345 3 0.5 0.833333 0.0833333
350 3 0.666667 0.833333 0.0833333
308 4 0.916667 0.875 0.0625
309 4 0.75 0.875 0.0625
310 3 0.916667 0.958333 0.0833333
314 3 0.75 0.958333 0.0833333
332 3 0.833333 0.833333 0.0833333
2 3 0 0 0.25
14 3 0.166667 0 0.25
100 4 0 0.166667 0.229167
185 3 0.0833333 0.125 0.25
206 3 0 0.166667 0.166667
579 4 0 0.0833333 0.145833
582 3 0.0833333 0.0416667 0.166667
583 3 0.166667 0.166667 0.166667
584 4 0.166667 0.0833333 0.145833
586 4 0.0833333 0.0416667 0.229167
587 4 0.166667 0.166667 0.229167
7 3 0.333333 0 0.25
245 4 0.333333 0.166667 0.229167
261 3 0.25 0.125 0.25
279 3 0.416667 0.125 0.25
561 4 0.333333 0.0833333 0.145833
564 3 0.416667 0.0416667 0.166667
568 4 0.416667 0.0416667 0.229167
581 3 0.25 0.0416667 0.166667
585 4 0.25 0.0416667 0.229167
588 3 0.333333 0.166667 0.166667
24 3 0.666667 2.0793e-17 0.25
42 3 0.5 2.0793e-17 0.25
546 4 0.666667 0.0833333 0.145833
563 3 0.583333 0.0416667 0.166667
565 3 0.5 0.166667 0.166667
566 4 0.5 0.0833333 0.145833
567 4 0.583333 0.0416667 0.229167
569 4 0.5 0.166667 0.229167
570 3 0.666667 0.166667 0.166667
572 3 0.583333 0.125 0.25
574 4 0.666667 0.166667 0.229167
62 3 0.833333 0 0.25
548 3 0.916667 0.0416667 0.166667
549 3 0.75 0.0416667 0.166667
550 3 0.833333 0.166667 0.166667
551 4 0.833333 0.0833333 0.145833
552 4 0.916667 0.0416667 0.229167
553 4 0.75 0.0416667 0.229167
554 4 0.833333 0.166667 0.229167
555 3 0.916667 0.125 0.25
571 3 0.75 0.125 0.25
65 3 0.166667 0.25 0.25
169 3 0 0.25 0.25
511 4 0.0833333 0.208333 0.145833
512 4 0.166667 0.333333 0.145833
528 3 0.0833333 0.291667 0.166667
530 4 0 0.333333 0.145833
531 4 0.0833333 0.291667 0.229167
535 3 0.0833333 0.375 0.25
259 3 0.333333 0.25 0.25
489 4 0.416667 0.208333 0.145833
510 4 0.25 0.208333 0.145833
514 3 0.416667 0.291667 0.166667
515 3 0.25 0.291667 0.166667
517 4 0.333333 0.333333 0.145833
518 4 0.416667 0.291667 0.229167
519 4 0.25 0.291667 0.229167
523 3 0.416667 0.375 0.25
534 3 0.25 0.375 0.25
209 3 0.5 0.25 0.25
488 4 0.583333 0.208333 0.145833
490 4 0.5 0.333333 0.145833
493 3 0.583333 0.291667 0.166667
495 4 0.666667 0.333333 0.145833
497 4 0.583333 0.291667 0.229167
522 3 0.583333 0.375 0.25
573 3 0.666667 0.25 0.25
476 4 0.916667 0.208333 0.145833
477 4 0.75 0.208333 0.145833
478 4 0.833333 0.333333 0.145833
479 3 0.916667 0.291667 0.166667
480 4 0.916667 0.291667 0.229167
492 3 0.75 0.291667 0.166667
496 4 0.75 0.291667 0.229167
500 3 0.916667 0.375 0.25
501 3 0.75 0.375 0.25
575 3 0.833333 0.25 0.25
447 4 0.0833333 0.458333 0.145833
448 4 0 0.583333 0.145833
451 3 0.0833333 0.541667 0.166667
453 4 0.166667 0.583333 0.145833
455 4 0.0833333 0.541667 0.229167
529 3 0 0.416667 0.166667
532 4 0 0.416667 0.229167
533 3 0.166667 0.416667 0.166667
536 3 0.166667 0.5 0.25
537 4 0.166667 0.416667 0.229167
539 3 0 0.5 0.25
427 4 0.416667 0.458333 0.145833
428 4 0.25 0.458333 0.145833
429 4 0.333333 0.583333 0.145833
432 3 0.416667 0.541667 0.166667
436 4 0.416667 0.541667 0.229167
450 3 0.25 0.541667 0.166667
454 4 0.25 0.541667 0.229167
516 3 0.333333 0.416667 0.166667
520 4 0.333333 0.416667 0.229167
538 3 0.333333 0.5 0.25
407 4 0.583333 0.458333 0.145833
408 4 0.666667 0.583333 0.145833
431 3 0.583333 0.541667 0.166667
434 4 0.5 0.583333 0.145833
435 4 0.583333 0.541667 0.229167
494 3 0.666667 0.416667 0.166667
498 4 0.666667 0.416667 0.229167
521 3 0.5 0.416667 0.166667
524 3 0.5 0.5 0.25
525 4 0.5 0.416667 0.229167
526 3 0.666667 0.5 0.25
397 4 0.916667 0.458333 0.145833
406 4 0.75 0.458333 0.145833
410 3 0.916667 0.541667 0.166667
411 3 0.75 0.541667 0.166667
413 4 0.833333 0.583333 0.145833
414 4 0.916667 0.541667 0.229167
415 4 0.75 0.541667 0.229167
499 3 0.833333 0.416667 0.166667
502 3 0.833333 0.5 0.25
503 4 0.833333 0.416667 0.229167
369 4 0.0833333 0.708333 0.145833
384 3 0.0833333 0.791667 0.166667
387 4 0.0833333 0.791667 0.229167
452 3 0.166667 0.666667 0.166667
456 4 0.166667 0.666667 0.229167
462 3 0 0.666667 0.166667
463 3 0.0833333 0.625 0.25
464 3 0 0.75 0.25
465 4 0 0.666667 0.229167
466 3 0.166667 0.75 0.25
38 1 0.33472 0.749537 0.246669
348 4 0.416667 0.708333 0.145833
368 4 0.25 0.708333 0.145833
372 3 0.416667 0.791667 0.166667
373 3 0.25 0.791667 0.166667
376 4 0.416667 0.791667 0.229167
377 4 0.25 0.791667 0.229167
457 3 0.333333 0.666667 0.166667
458 3 0.416667 0.625 0.25
459 3 0.25 0.625 0.25
460 4 0.333333 0.666667 0.229167
347 4 0.583333 0.708333 0.145833
352 3 0.583333 0.791667 0.166667
356 4 0.583333 0.791667 0.229167
433 3 0.5 0.666667 0.166667
437 4 0.5 0.666667 0.229167
438 3 0.666667 0.666667 0.166667
440 3 0.583333 0.625 0.25
441 3 0.666667 0.75 0.25
442 4 0.666667 0.666667 0.229167
461 3 0.5 0.75 0.25
28 1 0.834458 0.751318 0.251923
334 4 0.916667 0.708333 0.145833
335 4 0.75 0.708333 0.145833
337 3 0.916667 0.791667 0.166667
338 4 0.916667 0.791667 0.229167
351 3 0.75 0.791667 0.166667
355 4 0.75 0.791667 0.229167
412 3 0.833333 0.666667 0.166667
416 4 0.833333 0.666667 0.229167
417 3 0.916667 0.625 0.25
439 3 0.75 0.625 0.25
325 4 0.0833333 0.958333 0.145833
370 4 0.166667 0.833333 0.145833
385 3 0 0.916667 0.166667
386 4 0 0.833333 0.145833
388 4 0 0.916667 0.229167
389 3 0.166667 0.916667 0.166667
391 3 0.0833333 0.875 0.25
392 4 0.166667 0.916667 0.229167
322 4 0.416667 0.958333 0.145833
323 4 0.25 0.958333 0.145833
374 3 0.333333 0.916667 0.166667
375 4 0.333333 0.833333 0.145833
378 4 0.333333 0.916667 0.229167
381 3 0.416667 0.875 0.25
390 3 0.25 0.875 0.25
317 4 0.583333 0.958333 0.145833
349 4 0.5 0.833333 0.145833
353 3 0.666667 0.916667 0.166667
354 4 0.666667 0.833333 0.145833
357 4 0.666667 0.916667 0.229167
379 3 0.5 0.916667 0.166667
380 3 0.583333 0.875 0.25
382 4 0.5 0.916667 0.229167
1 1 0.914902 0.878147 0.251065
311 4 0.916667 0.958333 0.145833
316 4 0.75 0.958333 0.145833
336 4 0.833333 0.833333 0.145833
358 3 0.833333 0.916667 0.166667
359 3 0.75 0.875 0.25
360 4 0.833333 0.916667 0.229167
207 2 0.0807462 0.125118 0.312502
260 2 0.170878 -0.00344447 0.31223
280 1 -0.000827137 0.0808857 0.330701
281 2 0.00370599 -0.00236467 0.312627
282 2 0.000187471 0.0778326 0.392897
283 1 0.167577 0.0813967 0.331213
285 1 0.0842528 0.0388669 0.413351
286 1 0.165945 0.164225 0.415489
287 2 0.169099 0.0835071 0.394397
297 1 -0.00392349 0.162342 0.416883
182 2 0.421812 0.124396 0.312593
183 2 0.24983 0.126095 0.312567
262 1 0.335812 0.0870506 0.333932
263 2 0.334164 0.0020998 0.312801
264 2 0.333009 0.0831165 0.396789
267 1 0.420814 0.0448842 0.41376
284 1 0.249409 0.0407423 0.419549
291 1 0.331243 0.163187 0.419408
171 2 0.589305 0.126014 0.311068
246 2 0.505302 0.00141323 0.312434
247 1 0.669746 0.0802665 0.330975
248 2 0.669415 -0.000664947 0.31145
249 2 0.669715 0.0794884 0.394616
265 1 0.505911 0.0835649 0.332495
266 1 0.58784 0.0421007 0.417835
268 1 0.504321 0.166318 0.419157
269 2 0.506906 0.0849662 0.393152
273 1 0.672465 0.163951 0.41625
168 2 0.912568 0.126222 0.311957
170 2 0.752462 0.12788 0.3115
244 2 0.834052 0.0040638 0.312288
250 1 0.831725 0.0861122 0.334425
251 1 0.915254 0.0428287 0.415334
252 1 0.751894 0.0414059 0.419017
253 1 0.834436 0.166409 0.418145
254 2 0.832431 0.085513 0.398948
121 2 0.0811985 0.377972 0.311776
208 2 -0.00417128 0.251283 0.312481
211 1 0.0763483 0.209729 0.335423
212 1 0.163889 0.333505 0.332256
213 2 0.16104 0.249715 0.314113
215 2 0.0793646 0.205205 0.398354
216 2 0.161566 0.333918 0.394533
231 1 -0.00190654 0.334831 0.331348
232 1 0.0803161 0.290861 0.417396
234 2 0.00183562 0.337541 0.393435
102 2 0.414923 0.376661 0.314224
120 2 0.250337 0.373573 0.312585
184 2 0.335237 0.245104 0.313479
187 1 0.420555 0.208521 0.335346
191 2 0.415368 0.203782 0.397922
210 1 0.248878 0.20809 0.335972
214 2 0.246979 0.208478 0.397143
217 1 0.333652 0.331245 0.333084
218 1 0.417189 0.286167 0.417645
219 1 0.244796 0.292259 0.415589
221 2 0.3336 0.330043 0.394972
101 2 0.583216 0.374843 0.312749
172 2 0.670404 0.252194 0.312864
186 1 0.591222 0.207376 0.334446
188 1 0.499193 0.330795 0.333078
189 2 0.505726 0.24676 0.314454
190 2 0.591825 0.205728 0.396492
192 2 0.50344 0.328763 0.396017
193 1 0.669491 0.33565 0.334242
195 1 0.591825 0.290443 0.415066
197 2 0.675207 0.333983 0.397088
95 2 0.914256 0.377339 0.310622
96 2 0.751044 0.379118 0.312542
173 1 0.914552 0.207703 0.333282
174 1 0.750447 0.209629 0.332443
175 1 0.830565 0.332263 0.330904
176 2 0.835641 0.25249 0.310496
177 2 0.918368 0.209847 0.394184
178 2 0.754548 0.207608 0.395228
179 2 0.835572 0.333618 0.394024
180 1 0.917376 0.295381 0.413948