ITEM: TIMESTEP
0
ITEM: NUMBER OF ATOMS
588
ITEM: BOX BOUNDS pp pp ff
0.0000000000000000e+00 1.8496216339565233e+01
0.0000000000000000e+00 2.1357590965275090e+01
-1.5102097401354557e+01 1.5102097401354557e+01
ITEM: ATOMS id type xs ys zs
504 4 0.0833333 0.125 0.0625
556 3 0.166667 4.15861e-17 0
557 4 0.166667 4.15861e-17 0.0625
576 3 0 0 0
577 3 0 0.0833333 0.0833333
578 4 0 0 0.0625
580 3 0.166667 0.0833333 0.0833333
481 4 0.416667 0.125 0.0625
482 4 0.25 0.125 0.0625
558 3 0.333333 0 0
559 3 0.333333 0.0833333 0.0833333
560 4 0.333333 0 0.0625
470 4 0.583333 0.125 0.0625
542 4 0.5 0 0.0625
543 3 0.666667 0 0
544 3 0.666667 0.0833333 0.0833333
545 4 0.666667 0 0.0625
562 3 0.5 0.0833333 0.0833333
467 4 0.916667 0.125 0.0625
468 3 0.75 0.125 0
469 4 0.75 0.125 0.0625
540 3 0.833333 4.15861e-17 0
541 4 0.833333 0 0.0625
547 3 0.833333 0.0833333 0.0833333
420 4 0.0833333 0.375 0.0625
505 4 0 0.25 0.0625
507 3 0.0833333 0.208333 0.0833333
508 3 0.166667 0.333333 0.0833333
509 4 0.166667 0.25 0.0625
527 3 0 0.333333 0.0833333
400 4 0.416667 0.375 0.0625
419 4 0.25 0.375 0.0625
483 4 0.333333 0.25 0.0625
485 3 0.416667 0.208333 0.0833333
506 3 0.25 0.208333 0.0833333
513 3 0.333333 0.333333 0.0833333
399 4 0.583333 0.375 0.0625
471 4 0.666667 0.25 0.0625
484 3 0.583333 0.208333 0.0833333
486 3 0.5 0.333333 0.0833333
487 4 0.5 0.25 0.0625
491 3 0.666667 0.333333 0.0833333
393 4 0.916667 0.375 0.0625
394 4 0.75 0.375 0.0625
472 3 0.916667 0.208333 0.0833333
473 3 0.75 0.208333 0.0833333
474 3 0.833333 0.333333 0.0833333
475 4 0.833333 0.25 0.0625
418 3 0.166667 0.5 0
421 4 0.166667 0.5 0.0625
443 3 0 0.5 0
444 3 0.0833333 0.458333 0.0833333
445 3 0 0.583333 0.0833333
446 4 0 0.5 0.0625
449 3 0.166667 0.583333 0.0833333
422 3 0.333333 0.5 0
423 3 0.416667 0.458333 0.0833333
424 3 0.25 0.458333 0.0833333
425 3 0.333333 0.583333 0.0833333
426 4 0.333333 0.5 0.0625
398 3 0.5 0.5 0
401 4 0.5 0.5 0.0625
403 3 0.583333 0.458333 0.0833333
404 3 0.666667 0.583333 0.0833333
405 4 0.666667 0.5 0.0625
430 3 0.5 0.583333 0.0833333
395 4 0.833333 0.5 0.0625
396 3 0.916667 0.458333 0.0833333
402 3 0.75 0.458333 0.0833333
409 3 0.833333 0.583333 0.0833333
361 3 0.0833333 0.625 0
362 4 0.0833333 0.625 0.0625
363 4 0 0.75 0.0625
365 3 0.0833333 0.708333 0.0833333
367 4 0.166667 0.75 0.0625
339 3 0.416667 0.625 0
340 4 0.416667 0.625 0.0625
341 4 0.25 0.625 0.0625
342 4 0.333333 0.75 0.0625
344 3 0.416667 0.708333 0.0833333
364 3 0.25 0.708333 0.0833333
328 4 0.583333 0.625 0.0625
329 4 0.666667 0.75 0.0625
343 3 0.583333 0.708333 0.0833333
346 4 0.5 0.75 0.0625
326 4 0.916667 0.625 0.0625
327 4 0.75 0.625 0.0625
330 3 0.916667 0.708333 0.0833333
331 3 0.75 0.708333 0.0833333
333 4 0.833333 0.75 0.0625
319 4 0.0833333 0.875 0.0625
324 3 0.0833333 0.958333 0.0833333
366 3 0.166667 0.833333 0.0833333
383 3 0 0.833333 0.0833333
313 4 0.416667 0.875 0.0625
318 4 0.25 0.875 0.0625
320 3 0.416667 0.958333 0.0833333
321 3 0.25 0.958333 0.0833333
371 3 0.333333 0.833333 0.0833333
312 4 0.583333 0.875 0.0625
315 3 0.583333 0.958333 0.0833333
345 3 0.5 0.833333 0.0833333
350 3 0.666667 0.833333 0.0833333
308 4 0.916667 0.875 0.0625
309 4 0.75 0.875 0.0625
310 3 0.916667 0.958333 0.0833333
314 3 0.75 0.958333 0.0833333
332 3 0.833333 0.833333 0.0833333
2 3 0 0 0.25
14 3 0.166667 0 0.25
100 4 0 0.166667 0.229167
185 3 0.0833333 0.125 0.25
206 3 0 0.166667 0.166667
579 4 0 0.0833333 0.145833
582 3 0.0833333 0.0416667 0.166667
583 3 0.166667 0.166667 0.166667
584 4 0.166667 0.0833333 0.145833
586 4 0.0833333 0.0416667 0.229167
587 4 0.166667 0.166667 0.229167
7 3 0.333333 0 0.25
245 4 0.333333 0.166667 0.229167
261 3 0.25 0.125 0.25
279 3 0.416667 0.125 0.25
561 4 0.333333 0.0833333 0.145833
564 3 0.416667 0.0416667 0.166667
568 4 0.416667 0.0416667 0.229167
581 3 0.25 0.0416667 0.166667
585 4 0.25 0.0416667 0.229167
588 3 0.333333 0.166667 0.166667
24 3 0.666667 2.0793e-17 0.25
42 3 0.5 2.0793e-17 0.25
546 4 0.666667 0.0833333 0.145833
563 3 0.583333 0.0416667 0.166667
565 3 0.5 0.166667 0.166667
566 4 0.5 0.0833333 0.145833
567 4 0.583333 0.0416667 0.229167
569 4 0.5 0.166667 0.229167
570 3 0.666667 0.166667 0.166667
572 3 0.583333 0.125 0.25
574 4 0.666667 0.166667 0.229167
62 3 0.833333 0 0.25
548 3 0.916667 0.0416667 0.166667
549 3 0.75 0.0416667 0.166667
550 3 0.833333 0.166667 0.166667
551 4 0.833333 0.0833333 0.145833
552 4 0.916667 0.0416667 0.229167
553 4 0.75 0.0416667 0.229167
554 4 0.833333 0.166667 0.229167
555 3 0.916667 0.125 0.25
571 3 0.75 0.125 0.25
65 3 0.166667 0.25 0.25
169 3 0 0.25 0.25
511 4 0.0833333 0.208333 0.145833
512 4 0.166667 0.333333 0.145833
528 3 0.0833333 0.291667 0.166667
530 4 0 0.333333 0.145833
531 4 0.0833333 0.291667 0.229167
535 3 0.0833333 0.375 0.25
259 3 0.333333 0.25 0.25
489 4 0.416667 0.208333 0.145833
510 4 0.25 0.208333 0.145833
514 3 0.416667 0.291667 0.166667
515 3 0.25 0.291667 0.166667
517 4 0.333333 0.333333 0.145833
518 4 0.416667 0.291667 0.229167
519 4 0.25 0.291667 0.229167
523 3 0.416667 0.375 0.25
534 3 0.25 0.375 0.25
209 3 0.5 0.25 0.25
488 4 0.583333 0.208333 0.145833
490 4 0.5 0.333333 0.145833
493 3 0.583333 0.291667 0.166667
495 4 0.666667 0.333333 0.145833
497 4 0.583333 0.291667 0.229167
522 3 0.583333 0.375 0.25
573 3 0.666667 0.25 0.25
476 4 0.916667 0.208333 0.145833
477 4 0.75 0.208333 0.145833
478 4 0.833333 0.333333 0.145833
479 3 0.916667 0.291667 0.166667
480 4 0.916667 0.291667 0.229167
492 3 0.75 0.291667 0.166667
496 4 0.75 0.291667 0.229167
500 3 0.916667 0.375 0.25
501 3 0.75 0.375 0.25
575 3 0.833333 0.25 0.25
447 4 0.0833333 0.458333 0.145833
448 4 0 0.583333 0.145833
451 3 0.0833333 0.541667 0.166667
453 4 0.166667 0.583333 0.145833
455 4 0.0833333 0.541667 0.229167
529 3 0 0.416667 0.166667
532 4 0 0.416667 0.229167
533 3 0.166667 0.416667 0.166667
536 3 0.166667 0.5 0.25
537 4 0.166667 0.416667 0.229167
539 3 0 0.5 0.25
427 4 0.416667 0.458333 0.145833
428 4 0.25 0.458333 0.145833
429 4 0.333333 0.583333 0.145833
432 3 0.416667 0.541667 0.166667
436 4 0.416667 0.541667 0.229167
450 3 0.25 0.541667 0.166667
454 4 0.25 0.541667 0.229167
516 3 0.333333 0.416667 0.166667
520 4 0.333333 0.416667 0.229167
538 3 0.333333 0.5 0.25
407 4 0.583333 0.458333 0.145833
408 4 0.666667 0.583333 0.145833
431 3 0.583333 0.541667 0.166667
434 4 0.5 0.583333 0.145833
435 4 0.583333 0.541667 0.229167
494 3 0.666667 0.416667 0.166667
498 4 0.666667 0.416667 0.229167
521 3 0.5 0.416667 0.166667
524 3 0.5 0.5 0.25
525 4 0.5 0.416667 0.229167
526 3 0.666667 0.5 0.25
397 4 0.916667 0.458333 0.145833
406 4 0.75 0.458333 0.145833
410 3 0.916667 0.541667 0.166667
411 3 0.75 0.541667 0.166667
413 4 0.833333 0.583333 0.145833
414 4 0.916667 0.541667 0.229167
415 4 0.75 0.541667 0.229167
499 3 0.833333 0.416667 0.166667
502 3 0.833333 0.5 0.25
503 4 0.833333 0.416667 0.229167
369 4 0.0833333 0.708333 0.145833
384 3 0.0833333 0.791667 0.166667
387 4 0.0833333 0.791667 0.229167
452 3 0.166667 0.666667 0.166667
456 4 0.166667 0.666667 0.229167
462 3 0 0.666667 0.166667
463 3 0.0833333 0.625 0.25
464 3 0 0.75 0.25
465 4 0 0.666667 0.229167
466 3 0.166667 0.75 0.25
38 1 0.333333 0.75 0.25
348 4 0.416667 0.708333 0.145833
368 4 0.25 0.708333 0.145833
372 3 0.416667 0.791667 0.166667
373 3 0.25 0.791667 0.166667
376 4 0.416667 0.791667 0.229167
377 4 0.25 0.791667 0.229167
457 3 0.333333 0.666667 0.166667
458 3 0.416667 0.625 0.25
459 3 0.25 0.625 0.25
460 4 0.333333 0.666667 0.229167
347 4 0.583333 0.708333 0.145833
352 3 0.583333 0.791667 0.166667
356 4 0.583333 0.791667 0.229167
433 3 0.5 0.666667 0.166667
437 4 0.5 0.666667 0.229167
438 3 0.666667 0.666667 0.166667
440 3 0.583333 0.625 0.25
441 3 0.666667 0.75 0.25
442 4 0.666667 0.666667 0.229167
461 3 0.5 0.75 0.25
28 1 0.833333 0.75 0.25
334 4 0.916667 0.708333 0.145833
335 4 0.75 0.708333 0.145833
337 3 0.916667 0.791667 0.166667
338 4 0.916667 0.791667 0.229167
351 3 0.75 0.791667 0.166667
355 4 0.75 0.791667 0.229167
412 3 0.833333 0.666667 0.166667
416 4 0.833333 0.666667 0.229167
417 3 0.916667 0.625 0.25
439 3 0.75 0.625 0.25
325 4 0.0833333 0.958333 0.145833
370 4 0.166667 0.833333 0.145833
385 3 0 0.916667 0.166667
386 4 0 0.833333 0.145833
388 4 0 0.916667 0.229167
389 3 0.166667 0.916667 0.166667
391 3 0.0833333 0.875 0.25
392 4 0.166667 0.916667 0.229167
322 4 0.416667 0.958333 0.145833
323 4 0.25 0.958333 0.145833
374 3 0.333333 0.916667 0.166667
375 4 0.333333 0.833333 0.145833
378 4 0.333333 0.916667 0.229167
381 3 0.416667 0.875 0.25
390 3 0.25 0.875 0.25
317 4 0.583333 0.958333 0.145833
349 4 0.5 0.833333 0.145833
353 3 0.666667 0.916667 0.166667
354 4 0.666667 0.833333 0.145833
357 4 0.666667 0.916667 0.229167
379 3 0.5 0.916667 0.166667
380 3 0.583333 0.875 0.25
382 4 0.5 0.916667 0.229167
1 1 0.916667 0.875 0.25
311 4 0.916667 0.958333 0.145833
316 4 0.75 0.958333 0.145833
336 4 0.833333 0.833333 0.145833
358 3 0.833333 0.916667 0.166667
359 3 0.75 0.875 0.25
360 4 0.833333 0.916667 0.229167
207 2 0.0833333 0.125 0.3125
260 2 0.166667 0 0.3125
280 1 0 0.0833333 0.333333
281 2 0 0 0.3125
282 2 0 0.0833333 0.395833
283 1 0.166667 0.0833333 0.333333
285 1 0.0833333 0.0416667 0.416667
286 1 0.166667 0.166667 0.416667
287 2 0.166667 0.0833333 0.395833
297 1 0 0.166667 0.416667
182 2 0.416667 0.125 0.3125
183 2 0.25 0.125 0.3125
262 1 0.333333 0.0833333 0.333333
263 2 0.333333 0 0.3125
264 2 0.333333 0.0833333 0.395833
267 1 0.416667 0.0416667 0.416667
284 1 0.25 0.0416667 0.416667
291 1 0.333333 0.166667 0.416667
171 2 0.583333 0.125 0.3125
246 2 0.5 2.0793e-17 0.3125
247 1 0.666667 0.0833333 0.333333
248 2 0.666667 0 0.3125
249 2 0.666667 0.0833333 0.395833
265 1 0.5 0.0833333 0.333333
266 1 0.583333 0.0416667 0.416667
268 1 0.5 0.166667 0.416667
269 2 0.5 0.0833333 0.395833
273 1 0.666667 0.166667 0.416667
168 2 0.916667 0.125 0.3125
170 2 0.75 0.125 0.3125
244 2 0.833333 0 0.3125
250 1 0.833333 0.0833333 0.333333
251 1 0.916667 0.0416667 0.416667
252 1 0.75 0.0416667 0.416667
253 1 0.833333 0.166667 0.416667
254 2 0.833333 0.0833333 0.395833
121 2 0.0833333 0.375 0.3125
208 2 0 0.25 0.3125
211 1 0.0833333 0.208333 0.333333
212 1 0.166667 0.333333 0.333333
213 2 0.166667 0.25 0.3125
215 2 0.0833333 0.208333 0.395833
216 2 0.166667 0.333333 0.395833
231 1 0 0.333333 0.333333
232 1 0.0833333 0.291667 0.416667
234 2 0 0.333333 0.395833
102 2 0.416667 0.375 0.3125
120 2 0.25 0.375 0.3125
184 2 0.333333 0.25 0.3125
187 1 0.416667 0.208333 0.333333
191 2 0.416667 0.208333 0.395833
210 1 0.25 0.208333 0.333333
214 2 0.25 0.208333 0.395833
217 1 0.333333 0.333333 0.333333
218 1 0.416667 0.291667 0.416667
219 1 0.25 0.291667 0.416667
221 2 0.333333 0.333333 0.395833
101 2 0.583333 0.375 0.3125
172 2 0.666667 0.25 0.3125
186 1 0.583333 0.208333 0.333333
188 1 0.5 0.333333 0.333333
189 2 0.5 0.25 0.3125
190 2 0.583333 0.208333 0.395833
192 2 0.5 0.333333 0.395833
193 1 0.666667 0.333333 0.333333
195 1 0.583333 0.291667 0.416667
197 2 0.666667 0.333333 0.395833
95 2 0.916667 0.375 0.3125
96 2 0.75 0.375 0.3125
173 1 0.916667 0.208333 0.333333
174 1 0.75 0.208333 0.333333
175 1 0.833333 0.333333 0.333333
176 2 0.833333 0.25 0.3125
177 2 0.916667 0.208333 0.395833
178 2 0.75 0.208333 0.395833
179 2 0.833333 0.333333 0.395833
180 1 0.916667 0.291667 0.416667
194 1 0.75 0.291667 0.416667
122 2 0.166667 0.5 0.3125
144 1 0.0833333 0.458333 0.333333
145 1 0 0.583333 0.333333
146 2 0 0.5 0.3125
147 2 0.0833333 0.458333 0.395833
148 2 0 0.583333 0.395833
149 1 0.166667 0.583333 0.333333
151 1 0.0833333 0.541667 0.416667
153 2 0.166667 0.583333 0.395833
233 1 0 0.416667 0.416667
237 1 0.166667 0.416667 0.416667
123 1 0.416667 0.458333 0.333333
124 1 0.25 0.458333 0.333333
125 1 0.333333 0.583333 0.333333
126 2 0.333333 0.5 0.3125
127 2 0.416667 0.458333 0.395833
128 2 0.25 0.458333 0.395833
129 2 0.333333 0.583333 0.395833
132 1 0.416667 0.541667 0.416667
150 1 0.25 0.541667 0.416667
220 1 0.333333 0.416667 0.416667
103 2 0.5 0.5 0.3125
105 1 0.583333 0.458333 0.333333
106 1 0.666667 0.583333 0.333333
107 2 0.666667 0.5 0.3125
109 2 0.583333 0.458333 0.395833
110 2 0.666667 0.583333 0.395833
130 1 0.5 0.583333 0.333333
131 1 0.583333 0.541667 0.416667
134 2 0.5 0.583333 0.395833
196 1 0.666667 0.416667 0.416667
225 1 0.5 0.416667 0.416667
97 2 0.833333 0.5 0.3125
98 1 0.916667 0.458333 0.333333
99 2 0.916667 0.458333 0.395833
104 1 0.75 0.458333 0.333333
108 2 0.75 0.458333 0.395833
111 1 0.833333 0.583333 0.333333
112 1 0.916667 0.541667 0.416667
113 1 0.75 0.541667 0.416667
115 2 0.833333 0.583333 0.395833
201 1 0.833333 0.416667 0.416667
63 2 0.0833333 0.625 0.3125
64 2 0 0.75 0.3125
67 1 0.0833333 0.708333 0.333333
69 2 0.166667 0.75 0.3125
71 2 0.0833333 0.708333 0.395833
86 1 0.0833333 0.791667 0.416667
152 1 0.166667 0.666667 0.416667
163 1 0 0.666667 0.416667
39 2 0.416667 0.625 0.3125
40 2 0.25 0.625 0.3125
41 2 0.333333 0.75 0.3125
44 1 0.416667 0.708333 0.333333
48 2 0.416667 0.708333 0.395833
66 1 0.25 0.708333 0.333333
70 2 0.25 0.708333 0.395833
74 1 0.416667 0.791667 0.416667
75 1 0.25 0.791667 0.416667
157 1 0.333333 0.666667 0.416667
26 2 0.583333 0.625 0.3125
27 2 0.666667 0.75 0.3125
43 1 0.583333 0.708333 0.333333
46 2 0.5 0.75 0.3125
47 2 0.583333 0.708333 0.395833
52 1 0.583333 0.791667 0.416667
133 1 0.5 0.666667 0.416667
138 1 0.666667 0.666667 0.416667
23 2 0.916667 0.625 0.3125
25 2 0.75 0.625 0.3125
29 1 0.916667 0.708333 0.333333
30 1 0.75 0.708333 0.333333
32 2 0.833333 0.75 0.3125
33 2 0.916667 0.708333 0.395833
34 2 0.75 0.708333 0.395833
36 1 0.916667 0.791667 0.416667
51 1 0.75 0.791667 0.416667
114 1 0.833333 0.666667 0.416667
16 2 0.0833333 0.875 0.3125
21 1 0.0833333 0.958333 0.333333
22 2 0.0833333 0.958333 0.395833
68 1 0.166667 0.833333 0.333333
72 2 0.166667 0.833333 0.395833
85 1 0 0.833333 0.333333
87 1 0 0.916667 0.416667
88 2 0 0.833333 0.395833
91 1 0.166667 0.916667 0.416667
9 2 0.416667 0.875 0.3125
15 2 0.25 0.875 0.3125
17 1 0.416667 0.958333 0.333333
18 1 0.25 0.958333 0.333333
19 2 0.416667 0.958333 0.395833
20 2 0.25 0.958333 0.395833
73 1 0.333333 0.833333 0.333333
76 1 0.333333 0.916667 0.416667
77 2 0.333333 0.833333 0.395833
8 2 0.583333 0.875 0.3125
11 1 0.583333 0.958333 0.333333
13 2 0.583333 0.958333 0.395833
45 1 0.5 0.833333 0.333333
49 2 0.5 0.833333 0.395833
50 1 0.666667 0.833333 0.333333
53 1 0.666667 0.916667 0.416667
54 2 0.666667 0.833333 0.395833
81 1 0.5 0.916667 0.416667
3 2 0.916667 0.875 0.3125
4 2 0.75 0.875 0.3125
5 1 0.916667 0.958333 0.333333
6 2 0.916667 0.958333 0.395833
10 1 0.75 0.958333 0.333333
12 2 0.75 0.958333 0.395833
31 1 0.833333 0.833333 0.333333
35 2 0.833333 0.833333 0.395833
58 1 0.833333 0.916667 0.416667
289 2 0.0833333 0.0416667 0.479167
290 2 0.166667 0.166667 0.479167
298 1 0.0833333 0.125 0.5
300 2 0 0.166667 0.479167
305 1 0.166667 0 0.5
307 1 0 0 0.5
271 2 0.416667 0.0416667 0.479167
288 2 0.25 0.0416667 0.479167
292 1 0.416667 0.125 0.5
293 1 0.25 0.125 0.5
295 2 0.333333 0.166667 0.479167
306 1 0.333333 0 0.5
270 2 0.583333 0.0416667 0.479167
272 2 0.5 0.166667 0.479167
275 1 0.583333 0.125 0.5
277 2 0.666667 0.166667 0.479167
303 1 0.5 0 0.5
304 1 0.666667 0 0.5
255 2 0.916667 0.0416667 0.479167
256 2 0.75 0.0416667 0.479167
257 2 0.833333 0.166667 0.479167
258 1 0.916667 0.125 0.5
274 1 0.75 0.125 0.5
302 1 0.833333 0 0.5
235 2 0.0833333 0.291667 0.479167
239 1 0.0833333 0.375 0.5
299 1 0 0.25 0.5
301 1 0.166667 0.25 0.5
222 2 0.416667 0.291667 0.479167
223 2 0.25 0.291667 0.479167
227 1 0.416667 0.375 0.5
238 1 0.25 0.375 0.5
294 1 0.333333 0.25 0.5
199 2 0.583333 0.291667 0.479167
226 1 0.583333 0.375 0.5
276 1 0.666667 0.25 0.5
296 1 0.5 0.25 0.5
181 2 0.916667 0.291667 0.479167
198 2 0.75 0.291667 0.479167
202 1 0.916667 0.375 0.5
203 1 0.75 0.375 0.5
278 1 0.833333 0.25 0.5
155 2 0.0833333 0.541667 0.479167
236 2 0 0.416667 0.479167
240 1 0.166667 0.5 0.5
241 2 0.166667 0.416667 0.479167
243 1 0 0.5 0.5
136 2 0.416667 0.541667 0.479167
154 2 0.25 0.541667 0.479167
224 2 0.333333 0.416667 0.479167
242 1 0.333333 0.5 0.5
135 2 0.583333 0.541667 0.479167
200 2 0.666667 0.416667 0.479167
228 1 0.5 0.5 0.5
229 2 0.5 0.416667 0.479167
230 1 0.666667 0.5 0.5
116 2 0.916667 0.541667 0.479167
117 2 0.75 0.541667 0.479167
204 1 0.833333 0.5 0.5
205 2 0.833333 0.416667 0.479167
89 2 0.0833333 0.791667 0.479167
156 2 0.166667 0.666667 0.479167
164 1 0.0833333 0.625 0.5
165 1 0 0.75 0.5
166 2 0 0.666667 0.479167
167 1 0.166667 0.75 0.5
78 2 0.416667 0.791667 0.479167
79 2 0.25 0.791667 0.479167
158 1 0.416667 0.625 0.5
159 1 0.25 0.625 0.5
160 1 0.333333 0.75 0.5
161 2 0.333333 0.666667 0.479167
56 2 0.583333 0.791667 0.479167
137 2 0.5 0.666667 0.479167
140 1 0.583333 0.625 0.5
141 1 0.666667 0.75 0.5
142 2 0.666667 0.666667 0.479167
162 1 0.5 0.75 0.5
37 2 0.916667 0.791667 0.479167
55 2 0.75 0.791667 0.479167
118 2 0.833333 0.666667 0.479167
119 1 0.916667 0.625 0.5
139 1 0.75 0.625 0.5
143 1 0.833333 0.75 0.5
90 2 0 0.916667 0.479167
93 1 0.0833333 0.875 0.5
94 2 0.166667 0.916667 0.479167
80 2 0.333333 0.916667 0.479167
83 1 0.416667 0.875 0.5
92 1 0.25 0.875 0.5
57 2 0.666667 0.916667 0.479167
82 1 0.583333 0.875 0.5
84 2 0.5 0.916667 0.479167
59 1 0.916667 0.875 0.5
60 1 0.75 0.875 0.5
61 2 0.833333 0.916667 0.479167
ITEM: TIMESTEP
100
ITEM: NUMBER OF ATOMS
588
ITEM: BOX BOUNDS pp pp ff
0.0000000000000000e+00 1.8496216339565233e+01
0.0000000000000000e+00 2.1357590965275090e+01
-1.5102097401354557e+01 1.5102097401354557e+01
ITEM: ATOMS id type xs ys zs
504 4 0.0833333 0.125 0.0625
556 3 0.166667 4.15861e-17 0
557 4 0.166667 4.15861e-17 0.0625
576 3 0 0 0
577 3 0 0.0833333 0.0833333
578 4 0 0 0.0625
580 3 0.166667 0.0833333 0.0833333
481 4 0.416667 0.125 0.0625
482 4 0.25 0.125 0.0625
558 3 0.333333 0 0
559 3 0.333333 0.0833333 0.0833333
560 4 0.333333 0 0.0625
470 4 0.583333 0.125 0.0625
542 4 0.5 0 0.0625
543 3 0.666667 0 0
544 3 0.666667 0.0833333 0.0833333
545 4 0.666667 0 0.0625
562 3 0.5 0.0833333 0.0833333
467 4 0.916667 0.125 0.0625
468 3 0.75 0.125 0
469 4 0.75 0.125 0.0625
540 3 0.833333 4.15861e-17 0
541 4 0.833333 0 0.0625
547 3 0.833333 0.0833333 0.0833333
420 4 0.0833333 0.375 0.0625
505 4 0 0.25 0.0625
507 3 0.0833333 0.208333 0.0833333
508 3 0.166667 0.333333 0.0833333
509 4 0.166667 0.25 0.0625
527 3 0 0.333333 0.0833333
400 4 0.416667 0.375 0.0625
419 4 0.25 0.375 0.0625
483 4 0.333333 0.25 0.0625
485 3 0.416667 0.208333 0.0833333
506 3 0.25 0.208333 0.0833333
513 3 0.333333 0.333333 0.0833333
399 4 0.583333 0.375 0.0625
471 4 0.666667 0.25 0.0625
484 3 0.583333 0.208333 0.0833333
486 3 0.5 0.333333 0.0833333
487 4 0.5 0.25 0.0625
491 3 0.666667 0.333333 0.0833333
393 4 0.916667 0.375 0.0625
394 4 0.75 0.375 0.0625
472 3 0.916667 0.208333 0.0833333
473 3 0.75 0.208333 0.0833333
474 3 0.833333 0.333333 0.0833333
475 4 0.833333 0.25 0.0625
418 3 0.166667 0.5 0
421 4 0.166667 0.5 0.0625
443 3 0 0.5 0
444 3 0.0833333 0.458333 0.0833333
445 3 0 0.583333 0.0833333
446 4 0 0.5 0.0625
449 3 0.166667 0.583333 0.0833333
422 3 0.333333 0.5 0
423 3 0.416667 0.458333 0.0833333
424 3 0.25 0.458333 0.0833333
425 3 0.333333 0.583333 0.0833333
426 4 0.333333 0.5 0.0625
398 3 0.5 0.5 0
401 4 0.5 0.5 0.0625
403 3 0.583333 0.458333 0.0833333
404 3 0.666667 0.583333 0.0833333
405 4 0.666667 0.5 0.0625
430 3 0.5 0.583333 0.0833333
395 4 0.833333 0.5 0.0625
396 3 0.916667 0.458333 0.0833333
402 3 0.75 0.458333 0.0833333
409 3 0.833333 0.583333 0.0833333
361 3 0.0833333 0.625 0
362 4 0.0833333 0.625 0.0625
363 4 0 0.75 0.0625
365 3 0.0833333 0.708333 0.0833333
367 4 0.166667 0.75 0.0625
339 3 0.416667 0.625 0
340 4 0.416667 0.625 0.0625
341 4 0.25 0.625 0.0625
342 4 0.333333 0.75 0.0625
344 3 0.416667 0.708333 0.0833333
364 3 0.25 0.708333 0.0833333
328 4 0.583333 0.625 0.0625
329 4 0.666667 0.75 0.0625
343 3 0.583333 0.708333 0.0833333
346 4 0.5 0.75 0.0625
326 4 0.916667 0.625 0.0625
327 4 0.75 0.625 0.0625
330 3 0.916667 0.708333 0.0833333
331 3 0.75 0.708333 0.0833333
333 4 0.833333 0.75 0.0625
319 4 0.0833333 0.875 0.0625
324 3 0.0833333 0.958333 0.0833333
366 3 0.166667 0.833333 0.0833333
383 3 0 0.833333 0.0833333
313 4 0.416667 0.875 0.0625
318 4 0.25 0.875 0.0625
320 3 0.416667 0.958333 0.0833333
321 3 0.25 0.958333 0.0833333
371 3 0.333333 0.833333 0.0833333
312 4 0.583333 0.875 0.0625
315 3 0.583333 0.958333 0.0833333
345 3 0.5 0.833333 0.0833333
350 3 0.666667 0.833333 0.0833333
308 4 0.916667 0.875 0.0625
309 4 0.75 0.875 0.0625
310 3 0.916667 0.958333 0.0833333
314 3 0.75 0.958333 0.0833333
332 3 0.833333 0.833333 0.0833333
2 3 0 0 0.25
14 3 0.166667 0 0.25
100 4 0 0.166667 0.229167
185 3 0.0833333 0.125 0.25
206 3 0 0.166667 0.166667
579 4 0 0.0833333 0.145833
582 3 0.0833333 0.0416667 0.166667
583 3 0.166667 0.166667 0.166667
584 4 0.166667 0.0833333 0.145833
586 4 0.0833333 0.0416667 0.229167
587 4 0.166667 0.166667 0.229167
7 3 0.333333 0 0.25
245 4 0.333333 0.166667 0.229167
261 3 0.25 0.125 0.25
279 3 0.416667 0.125 0.25
561 4 0.333333 0.0833333 0.145833
564 3 0.416667 0.0416667 0.166667
568 4 0.416667 0.0416667 0.229167
581 3 0.25 0.0416667 0.166667
585 4 0.25 0.0416667 0.229167
588 3 0.333333 0.166667 0.166667
24 3 0.666667 2.0793e-17 0.25
42 3 0.5 2.0793e-17 0.25
546 4 0.666667 0.0833333 0.145833
563 3 0.583333 0.0416667 0.166667
565 3 0.5 0.166667 0.166667
566 4 0.5 0.0833333 0.145833
567 4 0.583333 0.0416667 0.229167
569 4 0.5 0.166667 0.229167
570 3 0.666667 0.166667 0.166667
572 3 0.583333 0.125 0.25
574 4 0.666667 0.166667 0.229167
62 3 0.833333 0 0.25
548 3 0.916667 0.0416667 0.166667
549 3 0.75 0.0416667 0.166667
550 3 0.833333 0.166667 0.166667
551 4 0.833333 0.0833333 0.145833
552 4 0.916667 0.0416667 0.229167
553 4 0.75 0.0416667 0.229167
554 4 0.833333 0.166667 0.229167
555 3 0.916667 0.125 0.25
571 3 0.75 0.125 0.25
65 3 0.166667 0.25 0.25
169 3 0 0.25 0.25
511 4 0.0833333 0.208333 0.145833
512 4 0.166667 0.333333 0.145833
528 3 0.0833333 0.291667 0.166667
530 4 0 0.333333 0.145833
531 4 0.0833333 0.291667 0.229167
535 3 0.0833333 0.375 0.25
259 3 0.333333 0.25 0.25
489 4 0.416667 0.208333 0.145833
510 4 0.25 0.208333 0.145833
514 3 0.416667 0.291667 0.166667
515 3 0.25 0.291667 0.166667
517 4 0.333333 0.333333 0.145833
518 4 0.416667 0.291667 0.229167
519 4 0.25 0.291667 0.229167
523 3 0.416667 0.375 0.25
534 3 0.25 0.375 0.25
209 3 0.5 0.25 0.25
488 4 0.583333 0.208333 0.145833
490 4 0.5 0.333333 0.145833
493 3 0.583333 0.291667 0.166667
495 4 0.666667 0.333333 0.145833
497 4 0.583333 0.291667 0.229167
522 3 0.583333 0.375 0.25
573 3 0.666667 0.25 0.25
476 4 0.916667 0.208333 0.145833
477 4 0.75 0.208333 0.145833
478 4 0.833333 0.333333 0.145833
479 3 0.916667 0.291667 0.166667
480 4 0.916667 0.291667 0.229167
492 3 0.75 0.291667 0.166667
496 4 0.75 0.291667 0.229167
500 3 0.916667 0.375 0.25
501 3 0.75 0.375 0.25
575 3 0.833333 0.25 0.25
447 4 0.0833333 0.458333 0.145833
448 4 0 0.583333 0.145833
451 3 0.0833333 0.541667 0.166667
453 4 0.166667 0.583333 0.145833
455 4 0.0833333 0.541667 0.229167
529 3 0 0.416667 0.166667
532 4 0 0.416667 0.229167
533 3 0.166667 0.416667 0.166667
536 3 0.166667 0.5 0.25
537 4 0.166667 0.416667 0.229167
539 3 0 0.5 0.25
427 4 0.416667 0.458333 0.145833
428 4 0.25 0.458333 0.145833
429 4 0.333333 0.583333 0.145833
432 3 0.416667 0.541667 0.166667
436 4 0.416667 0.541667 0.229167
450 3 0.25 0.541667 0.166667
454 4 0.25 0.541667 0.229167
516 3 0.333333 0.416667 0.166667
520 4 0.333333 0.416667 0.229167
538 3 0.333333 0.5 0.25
407 4 0.583333 0.458333 0.145833
408 4 0.666667 0.583333 0.145833
431 3 0.583333 0.541667 0.166667
434 4 0.5 0.583333 0.145833
435 4 0.583333 0.541667 0.229167
494 3 0.666667 0.416667 0.166667
498 4 0.666667 0.416667 0.229167
521 3 0.5 0.416667 0.166667
524 3 0.5 0.5 0.25
525 4 0.5 0.416667 0.229167
526 3 0.666667 0.5 0.25
397 4 0.916667 0.458333 0.145833
406 4 0.75 0.458333 0.145833
410 3 0.916667 0.541667 0.166667
411 3 0.75 0.541667 0.166667
413 4 0.833333 0.583333 0.145833
414 4 0.916667 0.541667 0.229167
415 4 0.75 0.541667 0.229167
499 3 0.833333 0.416667 0.166667
502 3 0.833333 0.5 0.25
503 4 0.833333 0.416667 0.229167
369 4 0.0833333 0.708333 0.145833
384 3 0.0833333 0.791667 0.166667
387 4 0.0833333 0.791667 0.229167
452 3 0.166667 0.666667 0.166667
456 4 0.166667 0.666667 0.229167
462 3 0 0.666667 0.166667
463 3 0.0833333 0.625 0.25
464 3 0 0.75 0.25
465 4 0 0.666667 0.229167
466 3 0.166667 0.75 0.25
38 1 0.334972 0.748828 0.247734
348 4 0.416667 0.708333 0.145833
368 4 0.25 0.708333 0.145833
372 3 0.416667 0.791667 0.166667
373 3 0.25 0.791667 0.166667
376 4 0.416667 0.791667 0.229167
377 4 0.25 0.791667 0.229167
457 3 0.333333 0.666667 0.166667
458 3 0.416667 0.625 0.25
459 3 0.25 0.625 0.25
460 4 0.333333 0.666667 0.229167
347 4 0.583333 0.708333 0.145833
352 3 0.583333 0.791667 0.166667
356 4 0.583333 0.791667 0.229167
433 3 0.5 0.666667 0.166667
437 4 0.5 0.666667 0.229167
438 3 0.666667 0.666667 0.166667
440 3 0.583333 0.625 0.25
441 3 0.666667 0.75 0.25
442 4 0.666667 0.666667 0.229167
461 3 0.5 0.75 0.25
28 1 0.834605 0.752887 0.252711
334 4 0.916667 0.708333 0.145833
335 4 0.75 0.708333 0.145833
337 3 0.916667 0.791667 0.166667
338 4 0.916667 0.791667 0.229167
351 3 0.75 0.791667 0.166667
355 4 0.75 0.791667 0.229167
412 3 0.833333 0.666667 0.166667
416 4 0.833333 0.666667 0.229167
417 3 0.916667 0.625 0.25
439 3 0.75 0.625 0.25
325 4 0.0833333 0.958333 0.145833
370 4 0.166667 0.833333 0.145833
385 3 0 0.916667 0.166667
386 4 0 0.833333 0.145833
388 4 0 0.916667 0.229167
389 3 0.166667 0.916667 0.166667
391 3 0.0833333 0.875 0.25
392 4 0.166667 0.916667 0.229167
322 4 0.416667 0.958333 0.145833
323 4 0.25 0.958333 0.145833
374 3 0.333333 0.916667 0.166667
375 4 0.333333 0.833333 0.145833
378 4 0.333333 0.916667 0.229167
381 3 0.416667 0.875 0.25
390 3 0.25 0.875 0.25
317 4 0.583333 0.958333 0.145833
349 4 0.5 0.833333 0.145833
353 3 0.666667 0.916667 0.166667
354 4 0.666667 0.833333 0.145833
357 4 0.666667 0.916667 0.229167
379 3 0.5 0.916667 0.166667
380 3 0.583333 0.875 0.25
382 4 0.5 0.916667 0.229167
1 1 0.913179 0.878118 0.252563
311 4 0.916667 0.958333 0.145833
316 4 0.75 0.958333 0.145833
336 4 0.833333 0.833333 0.145833
358 3 0.833333 0.916667 0.166667
359 3 0.75 0.875 0.25
360 4 0.833333 0.916667 0.229167
207 2 0.0839781 0.129371 0.311571
260 2 0.17044 -0.000838873 0.313462
280 1 -0.00329399 0.0824728 0.331284
281 2 0.00485107 -0.00166164 0.309719
282 2 -9.15812e-05 0.0822884 0.394231
283 1 0.166716 0.0813885 0.331283
285 1 0.0874408 0.0400968 0.416053
286 1 0.16675 0.167141 0.416127
287 2 0.165299 0.0813533 0.396703
297 1 -0.00207624 0.163116 0.415709
182 2 0.422075 0.128835 0.313391
183 2 0.252503 0.123328 0.311934
262 1 0.333949 0.0854328 0.333979
263 2 0.331675 0.00444829 0.310567
264 2 0.330321 0.0814986 0.395763
267 1 0.419626 0.0434156 0.41539
284 1 0.249024 0.0435174 0.418938
291 1 0.330995 0.164437 0.416931
171 2 0.583817 0.123779 0.310211
246 2 0.505627 0.00250974 0.309615
247 1 0.667487 0.0852536 0.331463
248 2 0.667406 -0.00480201 0.312045
249 2 0.671767 0.0842085 0.397467
265 1 0.505017 0.0840819 0.331064
266 1 0.584523 0.0400447 0.416811
268 1 0.50214 0.168415 0.414737
269 2 0.505805 0.0866348 0.394042
273 1 0.67062 0.163321 0.415459
168 2 0.918332 0.122236 0.31528
170 2 0.747527 0.121897 0.311014
244 2 0.833505 0.00260813 0.310595
250 1 0.833727 0.0857867 0.335516
251 1 0.915817 0.0394011 0.415587
252 1 0.749966 0.0408404 0.418457
253 1 0.834801 0.168939 0.416416
254 2 0.827713 0.0836547 0.393486
121 2 0.0878178 0.376436 0.309817
208 2 -0.00619854 0.251166 0.314122
211 1 0.0783765 0.208443 0.336287
212 1 0.164158 0.333483 0.33317
213 2 0.168668 0.249681 0.314658
215 2 0.0813523 0.207596 0.396992
216 2 0.162445 0.331279 0.394259
231 1 -0.00346696 0.335365 0.331081
232 1 0.0824193 0.289882 0.41667
234 2 -0.00326189 0.334712 0.392218
102 2 0.418371 0.377839 0.316204
120 2 0.249326 0.373958 0.309632
184 2 0.334287 0.251698 0.315541
187 1 0.420424 0.206778 0.334843
191 2 0.41195 0.205287 0.399007
210 1 0.247332 0.208796 0.334706
214 2 0.253496 0.207126 0.398851
217 1 0.333615 0.330602 0.332738
218 1 0.417453 0.28758 0.4189
219 1 0.246626 0.293676 0.415367
221 2 0.330592 0.328084 0.395105
101 2 0.579162 0.370791 0.310775
172 2 0.670856 0.25166 0.312837
186 1 0.588201 0.205907 0.335504
188 1 0.499017 0.333038 0.331853
189 2 0.504925 0.247334 0.315781
190 2 0.582182 0.208716 0.397055
192 2 0.50535 0.327871 0.397682
193 1 0.669209 0.334541 0.334133
195 1 0.588856 0.29017 0.414886
197 2 0.672933 0.329547 0.397186
95 2 0.911885 0.371294 0.31441
96 2 0.750604 0.376374 0.309835
173 1 0.914367 0.208203 0.332545
174 1 0.753384 0.2118 0.331853
175 1 0.833325 0.334754 0.331802
176 2 0.831747 0.248504 0.310016
177 2 0.911804 0.21077 0.398422
178 2 0.752933 0.210623 0.398453
179 2 0.829399 0.332907 0.394071
180 1 0.919785 0.293232 0.41502
194 1 0.753793 0.289563 0.417715
122 2 0.168326 0.496045 0.314321
144 1 0.0846989 0.461598 0.332769
145 1 0.000105592 0.580194 0.335146
146 2 -0.000776734 0.501171 0.311897
147 2 0.0879129 0.461249 0.398155
148 2 -2.28436e-05 0.581608 0.394371
149 1 0.165265 0.582008 0.330653
151 1 0.0870959 0.54312 0.414121
153 2 0.163536 0.583579 0.392256
233 1 0.00232027 0.418849 0.418623
237 1 0.168009 0.418021 0.415244
123 1 0.415404 0.46054 0.335727
124 1 0.253349 0.459458 0.331962
125 1 0.329826 0.58415 0.33269
126 2 0.33174 0.496893 0.311082
127 2 0.422289 0.461481 0.395998
128 2 0.246985 0.458728 0.394605
129 2 0.328897 0.582411 0.394381
132 1 0.41432 0.539648 0.417327
150 1 0.247886 0.538587 0.416025
220 1 0.334 0.416543 0.414453
103 2 0.498038 0.49819 0.312153
105 1 0.578933 0.459703 0.334404
106 1 0.665507 0.586315 0.33094
107 2 0.664427 0.50024 0.314582
109 2 0.585165 0.463034 0.393625
110 2 0.664367 0.585138 0.397962
130 1 0.500679 0.581379 0.331896
131 1 0.578613 0.544129 0.418067
134 2 0.497243 0.582121 0.396368
196 1 0.668926 0.419509 0.418487
225 1 0.500679 0.415705 0.41662
97 2 0.833244 0.500987 0.309726
98 1 0.914034 0.45537 0.33482
99 2 0.920213 0.461062 0.397355
104 1 0.752154 0.461699 0.335299