ITEM: TIMESTEP
0
ITEM: NUMBER OF ATOMS
588
ITEM: BOX BOUNDS pp pp ff
0.0000000000000000e+00 1.8496216339565233e+01
0.0000000000000000e+00 2.1357590965275090e+01
-1.5102097401354557e+01 1.5102097401354557e+01
ITEM: ATOMS type xs ys zs
4 0.0833333 0.125 0.0625
3 0.166667 4.15861e-17 0
4 0.166667 4.15861e-17 0.0625
3 0 0 0
3 0 0.0833333 0.0833333
4 0 0 0.0625
3 0.166667 0.0833333 0.0833333
4 0.416667 0.125 0.0625
4 0.25 0.125 0.0625
3 0.333333 0 0
3 0.333333 0.0833333 0.0833333
4 0.333333 0 0.0625
4 0.583333 0.125 0.0625
4 0.5 0 0.0625
3 0.666667 0 0
3 0.666667 0.0833333 0.0833333
4 0.666667 0 0.0625
3 0.5 0.0833333 0.0833333
4 0.916667 0.125 0.0625
3 0.75 0.125 0
4 0.75 0.125 0.0625
3 0.833333 4.15861e-17 0
4 0.833333 0 0.0625
3 0.833333 0.0833333 0.0833333
4 0.0833333 0.375 0.0625
4 0 0.25 0.0625
3 0.0833333 0.208333 0.0833333
3 0.166667 0.333333 0.0833333
4 0.166667 0.25 0.0625
3 0 0.333333 0.0833333
4 0.416667 0.375 0.0625
4 0.25 0.375 0.0625
4 0.333333 0.25 0.0625
3 0.416667 0.208333 0.0833333
3 0.25 0.208333 0.0833333
3 0.333333 0.333333 0.0833333
4 0.583333 0.375 0.0625
4 0.666667 0.25 0.0625
3 0.583333 0.208333 0.0833333
3 0.5 0.333333 0.0833333
4 0.5 0.25 0.0625
3 0.666667 0.333333 0.0833333
4 0.916667 0.375 0.0625
4 0.75 0.375 0.0625
3 0.916667 0.208333 0.0833333
3 0.75 0.208333 0.0833333
3 0.833333 0.333333 0.0833333
4 0.833333 0.25 0.0625
3 0.166667 0.5 0
4 0.166667 0.5 0.0625
3 0 0.5 0
3 0.0833333 0.458333 0.0833333
3 0 0.583333 0.0833333
4 0 0.5 0.0625
3 0.166667 0.583333 0.0833333
3 0.333333 0.5 0
3 0.416667 0.458333 0.0833333
3 0.25 0.458333 0.0833333
3 0.333333 0.583333 0.0833333
4 0.333333 0.5 0.0625
3 0.5 0.5 0
4 0.5 0.5 0.0625
3 0.583333 0.458333 0.0833333
3 0.666667 0.583333 0.0833333
4 0.666667 0.5 0.0625
3 0.5 0.583333 0.0833333
4 0.833333 0.5 0.0625
3 0.916667 0.458333 0.0833333
3 0.75 0.458333 0.0833333
3 0.833333 0.583333 0.0833333
3 0.0833333 0.625 0
4 0.0833333 0.625 0.0625
4 0 0.75 0.0625
3 0.0833333 0.708333 0.0833333
4 0.166667 0.75 0.0625
3 0.416667 0.625 0
4 0.416667 0.625 0.0625
4 0.25 0.625 0.0625
4 0.333333 0.75 0.0625
3 0.416667 0.708333 0.0833333
3 0.25 0.708333 0.0833333
4 0.583333 0.625 0.0625
4 0.666667 0.75 0.0625
3 0.583333 0.708333 0.0833333
4 0.5 0.75 0.0625
4 0.916667 0.625 0.0625
4 0.75 0.625 0.0625
3 0.916667 0.708333 0.0833333
3 0.75 0.708333 0.0833333
4 0.833333 0.75 0.0625
4 0.0833333 0.875 0.0625
3 0.0833333 0.958333 0.0833333
3 0.166667 0.833333 0.0833333
3 0 0.833333 0.0833333
4 0.416667 0.875 0.0625
4 0.25 0.875 0.0625
3 0.416667 0.958333 0.0833333
3 0.25 0.958333 0.0833333
3 0.333333 0.833333 0.0833333
4 0.583333 0.875 0.0625
3 0.583333 0.958333 0.0833333
3 0.5 0.833333 0.0833333
3 0.666667 0.833333 0.0833333
4 0.916667 0.875 0.0625
4 0.75 0.875 0.0625
3 0.916667 0.958333 0.0833333
3 0.75 0.958333 0.0833333
3 0.833333 0.833333 0.0833333
3 0 0 0.25
3 0.166667 0 0.25
4 0 0.166667 0.229167
3 0.0833333 0.125 0.25
3 0 0.166667 0.166667
4 0 0.0833333 0.145833
3 0.0833333 0.0416667 0.166667
3 0.166667 0.166667 0.166667
4 0.166667 0.0833333 0.145833
4 0.0833333 0.0416667 0.229167
4 0.166667 0.166667 0.229167
3 0.333333 0 0.25
4 0.333333 0.166667 0.229167
3 0.25 0.125 0.25
3 0.416667 0.125 0.25
4 0.333333 0.0833333 0.145833
3 0.416667 0.0416667 0.166667
4 0.416667 0.0416667 0.229167
3 0.25 0.0416667 0.166667
4 0.25 0.0416667 0.229167
3 0.333333 0.166667 0.166667
3 0.666667 2.0793e-17 0.25
3 0.5 2.0793e-17 0.25
4 0.666667 0.0833333 0.145833
3 0.583333 0.0416667 0.166667
3 0.5 0.166667 0.166667
4 0.5 0.0833333 0.145833
4 0.583333 0.0416667 0.229167
4 0.5 0.166667 0.229167
3 0.666667 0.166667 0.166667
3 0.583333 0.125 0.25
4 0.666667 0.166667 0.229167
3 0.833333 0 0.25
3 0.916667 0.0416667 0.166667
3 0.75 0.0416667 0.166667
3 0.833333 0.166667 0.166667
4 0.833333 0.0833333 0.145833
4 0.916667 0.0416667 0.229167
4 0.75 0.0416667 0.229167
4 0.833333 0.166667 0.229167
3 0.916667 0.125 0.25
3 0.75 0.125 0.25
3 0.166667 0.25 0.25
3 0 0.25 0.25
4 0.0833333 0.208333 0.145833
4 0.166667 0.333333 0.145833
3 0.0833333 0.291667 0.166667
4 0 0.333333 0.145833
4 0.0833333 0.291667 0.229167
3 0.0833333 0.375 0.25
3 0.333333 0.25 0.25
4 0.416667 0.208333 0.145833
4 0.25 0.208333 0.145833
3 0.416667 0.291667 0.166667
3 0.25 0.291667 0.166667
4 0.333333 0.333333 0.145833
4 0.416667 0.291667 0.229167
4 0.25 0.291667 0.229167
3 0.416667 0.375 0.25
3 0.25 0.375 0.25
3 0.5 0.25 0.25
4 0.583333 0.208333 0.145833
4 0.5 0.333333 0.145833
3 0.583333 0.291667 0.166667
4 0.666667 0.333333 0.145833
4 0.583333 0.291667 0.229167
3 0.583333 0.375 0.25
3 0.666667 0.25 0.25
4 0.916667 0.208333 0.145833
4 0.75 0.208333 0.145833
4 0.833333 0.333333 0.145833
3 0.916667 0.291667 0.166667
4 0.916667 0.291667 0.229167
3 0.75 0.291667 0.166667
4 0.75 0.291667 0.229167
3 0.916667 0.375 0.25
3 0.75 0.375 0.25
3 0.833333 0.25 0.25
4 0.0833333 0.458333 0.145833
4 0 0.583333 0.145833
3 0.0833333 0.541667 0.166667
4 0.166667 0.583333 0.145833
4 0.0833333 0.541667 0.229167
3 0 0.416667 0.166667
4 0 0.416667 0.229167
3 0.166667 0.416667 0.166667
3 0.166667 0.5 0.25
4 0.166667 0.416667 0.229167
3 0 0.5 0.25
4 0.416667 0.458333 0.145833
4 0.25 0.458333 0.145833
4 0.333333 0.583333 0.145833
3 0.416667 0.541667 0.166667
4 0.416667 0.541667 0.229167
3 0.25 0.541667 0.166667
4 0.25 0.541667 0.229167
3 0.333333 0.416667 0.166667
4 0.333333 0.416667 0.229167
3 0.333333 0.5 0.25
4 0.583333 0.458333 0.145833
4 0.666667 0.583333 0.145833
3 0.583333 0.541667 0.166667
4 0.5 0.583333 0.145833
4 0.583333 0.541667 0.229167
3 0.666667 0.416667 0.166667
4 0.666667 0.416667 0.229167
3 0.5 0.416667 0.166667
3 0.5 0.5 0.25
4 0.5 0.416667 0.229167
3 0.666667 0.5 0.25
4 0.916667 0.458333 0.145833
4 0.75 0.458333 0.145833
3 0.916667 0.541667 0.166667
3 0.75 0.541667 0.166667
4 0.833333 0.583333 0.145833
4 0.916667 0.541667 0.229167
4 0.75 0.541667 0.229167
3 0.833333 0.416667 0.166667
3 0.833333 0.5 0.25
4 0.833333 0.416667 0.229167
4 0.0833333 0.708333 0.145833
3 0.0833333 0.791667 0.166667
4 0.0833333 0.791667 0.229167
3 0.166667 0.666667 0.166667
4 0.166667 0.666667 0.229167
3 0 0.666667 0.166667
3 0.0833333 0.625 0.25
3 0 0.75 0.25
4 0 0.666667 0.229167
3 0.166667 0.75 0.25
1 0.333333 0.75 0.25
4 0.416667 0.708333 0.145833
4 0.25 0.708333 0.145833
3 0.416667 0.791667 0.166667
3 0.25 0.791667 0.166667
4 0.416667 0.791667 0.229167
4 0.25 0.791667 0.229167
3 0.333333 0.666667 0.166667
3 0.416667 0.625 0.25
3 0.25 0.625 0.25
4 0.333333 0.666667 0.229167
4 0.583333 0.708333 0.145833
3 0.583333 0.791667 0.166667
4 0.583333 0.791667 0.229167
3 0.5 0.666667 0.166667
4 0.5 0.666667 0.229167
3 0.666667 0.666667 0.166667
3 0.583333 0.625 0.25
3 0.666667 0.75 0.25
4 0.666667 0.666667 0.229167
3 0.5 0.75 0.25
1 0.833333 0.75 0.25
4 0.916667 0.708333 0.145833
4 0.75 0.708333 0.145833
3 0.916667 0.791667 0.166667
4 0.916667 0.791667 0.229167
3 0.75 0.791667 0.166667
4 0.75 0.791667 0.229167
3 0.833333 0.666667 0.166667
4 0.833333 0.666667 0.229167
3 0.916667 0.625 0.25
3 0.75 0.625 0.25
4 0.0833333 0.958333 0.145833
4 0.166667 0.833333 0.145833
3 0 0.916667 0.166667
4 0 0.833333 0.145833
4 0 0.916667 0.229167
3 0.166667 0.916667 0.166667
3 0.0833333 0.875 0.25
4 0.166667 0.916667 0.229167
4 0.416667 0.958333 0.145833
4 0.25 0.958333 0.145833
3 0.333333 0.916667 0.166667
4 0.333333 0.833333 0.145833
4 0.333333 0.916667 0.229167
3 0.416667 0.875 0.25
3 0.25 0.875 0.25
4 0.583333 0.958333 0.145833
4 0.5 0.833333 0.145833
3 0.666667 0.916667 0.166667
4 0.666667 0.833333 0.145833
4 0.666667 0.916667 0.229167
3 0.5 0.916667 0.166667
3 0.583333 0.875 0.25
4 0.5 0.916667 0.229167
1 0.916667 0.875 0.25
4 0.916667 0.958333 0.145833
4 0.75 0.958333 0.145833
4 0.833333 0.833333 0.145833
3 0.833333 0.916667 0.166667
3 0.75 0.875 0.25
4 0.833333 0.916667 0.229167
2 0.0833333 0.125 0.3125
2 0.166667 0 0.3125
1 0 0.0833333 0.333333
2 0 0 0.3125
2 0 0.0833333 0.395833
1 0.166667 0.0833333 0.333333
1 0.0833333 0.0416667 0.416667
1 0.166667 0.166667 0.416667
2 0.166667 0.0833333 0.395833
1 0 0.166667 0.416667
2 0.416667 0.125 0.3125
2 0.25 0.125 0.3125
1 0.333333 0.0833333 0.333333
2 0.333333 0 0.3125
2 0.333333 0.0833333 0.395833
1 0.416667 0.0416667 0.416667
1 0.25 0.0416667 0.416667
1 0.333333 0.166667 0.416667
2 0.583333 0.125 0.3125
2 0.5 2.0793e-17 0.3125
1 0.666667 0.0833333 0.333333
2 0.666667 0 0.3125
2 0.666667 0.0833333 0.395833
1 0.5 0.0833333 0.333333
1 0.583333 0.0416667 0.416667
1 0.5 0.166667 0.416667
2 0.5 0.0833333 0.395833
1 0.666667 0.166667 0.416667
2 0.916667 0.125 0.3125
2 0.75 0.125 0.3125
2 0.833333 0 0.3125
1 0.833333 0.0833333 0.333333
1 0.916667 0.0416667 0.416667
1 0.75 0.0416667 0.416667
1 0.833333 0.166667 0.416667
2 0.833333 0.0833333 0.395833
2 0.0833333 0.375 0.3125
2 0 0.25 0.3125
1 0.0833333 0.208333 0.333333
1 0.166667 0.333333 0.333333
2 0.166667 0.25 0.3125
2 0.0833333 0.208333 0.395833
2 0.166667 0.333333 0.395833
1 0 0.333333 0.333333
1 0.0833333 0.291667 0.416667
2 0 0.333333 0.395833
2 0.416667 0.375 0.3125
2 0.25 0.375 0.3125
2 0.333333 0.25 0.3125
1 0.416667 0.208333 0.333333
2 0.416667 0.208333 0.395833
1 0.25 0.208333 0.333333
2 0.25 0.208333 0.395833
1 0.333333 0.333333 0.333333
1 0.416667 0.291667 0.416667
1 0.25 0.291667 0.416667
2 0.333333 0.333333 0.395833
2 0.583333 0.375 0.3125
2 0.666667 0.25 0.3125
1 0.583333 0.208333 0.333333
1 0.5 0.333333 0.333333
2 0.5 0.25 0.3125
2 0.583333 0.208333 0.395833
2 0.5 0.333333 0.395833
1 0.666667 0.333333 0.333333
1 0.583333 0.291667 0.416667
2 0.666667 0.333333 0.395833
2 0.916667 0.375 0.3125
2 0.75 0.375 0.3125
1 0.916667 0.208333 0.333333
1 0.75 0.208333 0.333333
1 0.833333 0.333333 0.333333
2 0.833333 0.25 0.3125
2 0.916667 0.208333 0.395833
2 0.75 0.208333 0.395833
2 0.833333 0.333333 0.395833
1 0.916667 0.291667 0.416667
1 0.75 0.291667 0.416667
2 0.166667 0.5 0.3125
1 0.0833333 0.458333 0.333333
1 0 0.583333 0.333333
2 0 0.5 0.3125
2 0.0833333 0.458333 0.395833
2 0 0.583333 0.395833
1 0.166667 0.583333 0.333333
1 0.0833333 0.541667 0.416667
2 0.166667 0.583333 0.395833
1 0 0.416667 0.416667
1 0.166667 0.416667 0.416667
1 0.416667 0.458333 0.333333
1 0.25 0.458333 0.333333
1 0.333333 0.583333 0.333333
2 0.333333 0.5 0.3125
2 0.416667 0.458333 0.395833
2 0.25 0.458333 0.395833
2 0.333333 0.583333 0.395833
1 0.416667 0.541667 0.416667
1 0.25 0.541667 0.416667
1 0.333333 0.416667 0.416667
2 0.5 0.5 0.3125
1 0.583333 0.458333 0.333333
1 0.666667 0.583333 0.333333
2 0.666667 0.5 0.3125
2 0.583333 0.458333 0.395833
2 0.666667 0.583333 0.395833
1 0.5 0.583333 0.333333
1 0.583333 0.541667 0.416667
2 0.5 0.583333 0.395833
1 0.666667 0.416667 0.416667
1 0.5 0.416667 0.416667
2 0.833333 0.5 0.3125
1 0.916667 0.458333 0.333333
2 0.916667 0.458333 0.395833
1 0.75 0.458333 0.333333
2 0.75 0.458333 0.395833
1 0.833333 0.583333 0.333333
1 0.916667 0.541667 0.416667
1 0.75 0.541667 0.416667
2 0.833333 0.583333 0.395833
1 0.833333 0.416667 0.416667
2 0.0833333 0.625 0.3125
2 0 0.75 0.3125
1 0.0833333 0.708333 0.333333
2 0.166667 0.75 0.3125
2 0.0833333 0.708333 0.395833
1 0.0833333 0.791667 0.416667
1 0.166667 0.666667 0.416667
1 0 0.666667 0.416667
2 0.416667 0.625 0.3125
2 0.25 0.625 0.3125
2 0.333333 0.75 0.3125
1 0.416667 0.708333 0.333333
2 0.416667 0.708333 0.395833
1 0.25 0.708333 0.333333
2 0.25 0.708333 0.395833
1 0.416667 0.791667 0.416667
1 0.25 0.791667 0.416667
1 0.333333 0.666667 0.416667
2 0.583333 0.625 0.3125
2 0.666667 0.75 0.3125
1 0.583333 0.708333 0.333333
2 0.5 0.75 0.3125
2 0.583333 0.708333 0.395833
1 0.583333 0.791667 0.416667
1 0.5 0.666667 0.416667
1 0.666667 0.666667 0.416667
2 0.916667 0.625 0.3125
2 0.75 0.625 0.3125
1 0.916667 0.708333 0.333333
1 0.75 0.708333 0.333333
2 0.833333 0.75 0.3125
2 0.916667 0.708333 0.395833
2 0.75 0.708333 0.395833
1 0.916667 0.791667 0.416667
1 0.75 0.791667 0.416667
1 0.833333 0.666667 0.416667
2 0.0833333 0.875 0.3125
1 0.0833333 0.958333 0.333333
2 0.0833333 0.958333 0.395833
1 0.166667 0.833333 0.333333
2 0.166667 0.833333 0.395833
1 0 0.833333 0.333333
1 0 0.916667 0.416667
2 0 0.833333 0.395833
1 0.166667 0.916667 0.416667
2 0.416667 0.875 0.3125
2 0.25 0.875 0.3125
1 0.416667 0.958333 0.333333
1 0.25 0.958333 0.333333
2 0.416667 0.958333 0.395833
2 0.25 0.958333 0.395833
1 0.333333 0.833333 0.333333
1 0.333333 0.916667 0.416667
2 0.333333 0.833333 0.395833
2 0.583333 0.875 0.3125
1 0.583333 0.958333 0.333333
2 0.583333 0.958333 0.395833
1 0.5 0.833333 0.333333
2 0.5 0.833333 0.395833
1 0.666667 0.833333 0.333333
1 0.666667 0.916667 0.416667
2 0.666667 0.833333 0.395833
1 0.5 0.916667 0.416667
2 0.916667 0.875 0.3125
2 0.75 0.875 0.3125
1 0.916667 0.958333 0.333333
2 0.916667 0.958333 0.395833
1 0.75 0.958333 0.333333
2 0.75 0.958333 0.395833
1 0.833333 0.833333 0.333333
2 0.833333 0.833333 0.395833
1 0.833333 0.916667 0.416667
2 0.0833333 0.0416667 0.479167
2 0.166667 0.166667 0.479167
1 0.0833333 0.125 0.5
2 0 0.166667 0.479167
1 0.166667 0 0.5
1 0 0 0.5
2 0.416667 0.0416667 0.479167
2 0.25 0.0416667 0.479167
1 0.416667 0.125 0.5
1 0.25 0.125 0.5
2 0.333333 0.166667 0.479167
1 0.333333 0 0.5
2 0.583333 0.0416667 0.479167
2 0.5 0.166667 0.479167
1 0.583333 0.125 0.5
2 0.666667 0.166667 0.479167
1 0.5 0 0.5
1 0.666667 0 0.5
2 0.916667 0.0416667 0.479167
2 0.75 0.0416667 0.479167
2 0.833333 0.166667 0.479167
1 0.916667 0.125 0.5
1 0.75 0.125 0.5
1 0.833333 0 0.5
2 0.0833333 0.291667 0.479167
1 0.0833333 0.375 0.5
1 0 0.25 0.5
1 0.166667 0.25 0.5
2 0.416667 0.291667 0.479167
2 0.25 0.291667 0.479167
1 0.416667 0.375 0.5
1 0.25 0.375 0.5
1 0.333333 0.25 0.5
2 0.583333 0.291667 0.479167
1 0.583333 0.375 0.5
1 0.666667 0.25 0.5
1 0.5 0.25 0.5
2 0.916667 0.291667 0.479167
2 0.75 0.291667 0.479167
1 0.916667 0.375 0.5
1 0.75 0.375 0.5
1 0.833333 0.25 0.5
2 0.0833333 0.541667 0.479167
2 0 0.416667 0.479167
1 0.166667 0.5 0.5
2 0.166667 0.416667 0.479167
1 0 0.5 0.5
2 0.416667 0.541667 0.479167
2 0.25 0.541667 0.479167
2 0.333333 0.416667 0.479167
1 0.333333 0.5 0.5
2 0.583333 0.541667 0.479167
2 0.666667 0.416667 0.479167
1 0.5 0.5 0.5
2 0.5 0.416667 0.479167
1 0.666667 0.5 0.5
2 0.916667 0.541667 0.479167
2 0.75 0.541667 0.479167
1 0.833333 0.5 0.5
2 0.833333 0.416667 0.479167
2 0.0833333 0.791667 0.479167
2 0.166667 0.666667 0.479167
1 0.0833333 0.625 0.5
1 0 0.75 0.5
2 0 0.666667 0.479167
1 0.166667 0.75 0.5
2 0.416667 0.791667 0.479167
2 0.25 0.791667 0.479167
1 0.416667 0.625 0.5
1 0.25 0.625 0.5
1 0.333333 0.75 0.5
2 0.333333 0.666667 0.479167
2 0.583333 0.791667 0.479167
2 0.5 0.666667 0.479167
1 0.583333 0.625 0.5
1 0.666667 0.75 0.5
2 0.666667 0.666667 0.479167
1 0.5 0.75 0.5
2 0.916667 0.791667 0.479167
2 0.75 0.791667 0.479167
2 0.833333 0.666667 0.479167
1 0.916667 0.625 0.5
1 0.75 0.625 0.5
1 0.833333 0.75 0.5
2 0 0.916667 0.479167
1 0.0833333 0.875 0.5
2 0.166667 0.916667 0.479167
2 0.333333 0.916667 0.479167
1 0.416667 0.875 0.5
1 0.25 0.875 0.5
2 0.666667 0.916667 0.479167
1 0.583333 0.875 0.5
2 0.5 0.916667 0.479167
1 0.916667 0.875 0.5
1 0.75 0.875 0.5
2 0.833333 0.916667 0.479167
ITEM: TIMESTEP
100
ITEM: NUMBER OF ATOMS
588
ITEM: BOX BOUNDS pp pp ff
0.0000000000000000e+00 1.8496216339565233e+01
0.0000000000000000e+00 2.1357590965275090e+01
-1.5102097401354557e+01 1.5102097401354557e+01
ITEM: ATOMS type xs ys zs
4 0.0833333 0.125 0.0625
3 0.166667 4.15861e-17 0
4 0.166667 4.15861e-17 0.0625
3 0 0 0
3 0 0.0833333 0.0833333
4 0 0 0.0625
3 0.166667 0.0833333 0.0833333
4 0.416667 0.125 0.0625
4 0.25 0.125 0.0625
3 0.333333 0 0
3 0.333333 0.0833333 0.0833333
4 0.333333 0 0.0625
4 0.583333 0.125 0.0625
4 0.5 0 0.0625
3 0.666667 0 0
3 0.666667 0.0833333 0.0833333
4 0.666667 0 0.0625
3 0.5 0.0833333 0.0833333
4 0.916667 0.125 0.0625
3 0.75 0.125 0
4 0.75 0.125 0.0625
3 0.833333 4.15861e-17 0
4 0.833333 0 0.0625
3 0.833333 0.0833333 0.0833333
4 0.0833333 0.375 0.0625
4 0 0.25 0.0625
3 0.0833333 0.208333 0.0833333
3 0.166667 0.333333 0.0833333
4 0.166667 0.25 0.0625
3 0 0.333333 0.0833333
4 0.416667 0.375 0.0625
4 0.25 0.375 0.0625
4 0.333333 0.25 0.0625
3 0.416667 0.208333 0.0833333
3 0.25 0.208333 0.0833333
3 0.333333 0.333333 0.0833333
4 0.583333 0.375 0.0625
4 0.666667 0.25 0.0625
3 0.583333 0.208333 0.0833333
3 0.5 0.333333 0.0833333
4 0.5 0.25 0.0625
3 0.666667 0.333333 0.0833333
4 0.916667 0.375 0.0625
4 0.75 0.375 0.0625
3 0.916667 0.208333 0.0833333
3 0.75 0.208333 0.0833333
3 0.833333 0.333333 0.0833333
4 0.833333 0.25 0.0625
3 0.166667 0.5 0
4 0.166667 0.5 0.0625
3 0 0.5 0
3 0.0833333 0.458333 0.0833333
3 0 0.583333 0.0833333
4 0 0.5 0.0625
3 0.166667 0.583333 0.0833333
3 0.333333 0.5 0
3 0.416667 0.458333 0.0833333
3 0.25 0.458333 0.0833333
3 0.333333 0.583333 0.0833333
4 0.333333 0.5 0.0625
3 0.5 0.5 0
4 0.5 0.5 0.0625
3 0.583333 0.458333 0.0833333
3 0.666667 0.583333 0.0833333
4 0.666667 0.5 0.0625
3 0.5 0.583333 0.0833333
4 0.833333 0.5 0.0625
3 0.916667 0.458333 0.0833333
3 0.75 0.458333 0.0833333
3 0.833333 0.583333 0.0833333
3 0.0833333 0.625 0
4 0.0833333 0.625 0.0625
4 0 0.75 0.0625
3 0.0833333 0.708333 0.0833333
4 0.166667 0.75 0.0625
3 0.416667 0.625 0
4 0.416667 0.625 0.0625
4 0.25 0.625 0.0625
4 0.333333 0.75 0.0625
3 0.416667 0.708333 0.0833333
3 0.25 0.708333 0.0833333
4 0.583333 0.625 0.0625
4 0.666667 0.75 0.0625
3 0.583333 0.708333 0.0833333
4 0.5 0.75 0.0625
4 0.916667 0.625 0.0625
4 0.75 0.625 0.0625
3 0.916667 0.708333 0.0833333
3 0.75 0.708333 0.0833333
4 0.833333 0.75 0.0625
4 0.0833333 0.875 0.0625
3 0.0833333 0.958333 0.0833333
3 0.166667 0.833333 0.0833333
3 0 0.833333 0.0833333
4 0.416667 0.875 0.0625
4 0.25 0.875 0.0625
3 0.416667 0.958333 0.0833333
3 0.25 0.958333 0.0833333
3 0.333333 0.833333 0.0833333
4 0.583333 0.875 0.0625
3 0.583333 0.958333 0.0833333
3 0.5 0.833333 0.0833333
3 0.666667 0.833333 0.0833333
4 0.916667 0.875 0.0625
4 0.75 0.875 0.0625
3 0.916667 0.958333 0.0833333
3 0.75 0.958333 0.0833333
3 0.833333 0.833333 0.0833333
3 0 0 0.25
3 0.166667 0 0.25
4 0 0.166667 0.229167
3 0.0833333 0.125 0.25
3 0 0.166667 0.166667
4 0 0.0833333 0.145833
3 0.0833333 0.0416667 0.166667
3 0.166667 0.166667 0.166667
4 0.166667 0.0833333 0.145833
4 0.0833333 0.0416667 0.229167
4 0.166667 0.166667 0.229167
3 0.333333 0 0.25
4 0.333333 0.166667 0.229167
3 0.25 0.125 0.25
3 0.416667 0.125 0.25
4 0.333333 0.0833333 0.145833
3 0.416667 0.0416667 0.166667
4 0.416667 0.0416667 0.229167
3 0.25 0.0416667 0.166667
4 0.25 0.0416667 0.229167
3 0.333333 0.166667 0.166667
3 0.666667 2.0793e-17 0.25
3 0.5 2.0793e-17 0.25
4 0.666667 0.0833333 0.145833
3 0.583333 0.0416667 0.166667
3 0.5 0.166667 0.166667
4 0.5 0.0833333 0.145833
4 0.583333 0.0416667 0.229167
4 0.5 0.166667 0.229167
3 0.666667 0.166667 0.166667
3 0.583333 0.125 0.25
4 0.666667 0.166667 0.229167
3 0.833333 0 0.25
3 0.916667 0.0416667 0.166667
3 0.75 0.0416667 0.166667
3 0.833333 0.166667 0.166667
4 0.833333 0.0833333 0.145833
4 0.916667 0.0416667 0.229167
4 0.75 0.0416667 0.229167
4 0.833333 0.166667 0.229167
3 0.916667 0.125 0.25
3 0.75 0.125 0.25
3 0.166667 0.25 0.25
3 0 0.25 0.25
4 0.0833333 0.208333 0.145833
4 0.166667 0.333333 0.145833
3 0.0833333 0.291667 0.166667
4 0 0.333333 0.145833
4 0.0833333 0.291667 0.229167
3 0.0833333 0.375 0.25
3 0.333333 0.25 0.25
4 0.416667 0.208333 0.145833
4 0.25 0.208333 0.145833
3 0.416667 0.291667 0.166667
3 0.25 0.291667 0.166667
4 0.333333 0.333333 0.145833
4 0.416667 0.291667 0.229167
4 0.25 0.291667 0.229167
3 0.416667 0.375 0.25
3 0.25 0.375 0.25
3 0.5 0.25 0.25
4 0.583333 0.208333 0.145833
4 0.5 0.333333 0.145833
3 0.583333 0.291667 0.166667
4 0.666667 0.333333 0.145833
4 0.583333 0.291667 0.229167
3 0.583333 0.375 0.25
3 0.666667 0.25 0.25
4 0.916667 0.208333 0.145833
4 0.75 0.208333 0.145833
4 0.833333 0.333333 0.145833
3 0.916667 0.291667 0.166667
4 0.916667 0.291667 0.229167
3 0.75 0.291667 0.166667
4 0.75 0.291667 0.229167
3 0.916667 0.375 0.25
3 0.75 0.375 0.25
3 0.833333 0.25 0.25
4 0.0833333 0.458333 0.145833
4 0 0.583333 0.145833
3 0.0833333 0.541667 0.166667
4 0.166667 0.583333 0.145833
4 0.0833333 0.541667 0.229167
3 0 0.416667 0.166667
4 0 0.416667 0.229167
3 0.166667 0.416667 0.166667
3 0.166667 0.5 0.25
4 0.166667 0.416667 0.229167
3 0 0.5 0.25
4 0.416667 0.458333 0.145833
4 0.25 0.458333 0.145833
4 0.333333 0.583333 0.145833
3 0.416667 0.541667 0.166667
4 0.416667 0.541667 0.229167
3 0.25 0.541667 0.166667
4 0.25 0.541667 0.229167
3 0.333333 0.416667 0.166667
4 0.333333 0.416667 0.229167
3 0.333333 0.5 0.25
4 0.583333 0.458333 0.145833
4 0.666667 0.583333 0.145833
3 0.583333 0.541667 0.166667
4 0.5 0.583333 0.145833
4 0.583333 0.541667 0.229167
3 0.666667 0.416667 0.166667
4 0.666667 0.416667 0.229167
3 0.5 0.416667 0.166667
3 0.5 0.5 0.25
4 0.5 0.416667 0.229167
3 0.666667 0.5 0.25
4 0.916667 0.458333 0.145833
4 0.75 0.458333 0.145833
3 0.916667 0.541667 0.166667
3 0.75 0.541667 0.166667
4 0.833333 0.583333 0.145833
4 0.916667 0.541667 0.229167
4 0.75 0.541667 0.229167
3 0.833333 0.416667 0.166667
3 0.833333 0.5 0.25
4 0.833333 0.416667 0.229167
4 0.0833333 0.708333 0.145833
3 0.0833333 0.791667 0.166667
4 0.0833333 0.791667 0.229167
3 0.166667 0.666667 0.166667
4 0.166667 0.666667 0.229167
3 0 0.666667 0.166667
3 0.0833333 0.625 0.25
3 0 0.75 0.25
4 0 0.666667 0.229167
3 0.166667 0.75 0.25
1 0.334962 0.748833 0.247756
4 0.416667 0.708333 0.145833
4 0.25 0.708333 0.145833
3 0.416667 0.791667 0.166667
3 0.25 0.791667 0.166667
4 0.416667 0.791667 0.229167
4 0.25 0.791667 0.229167
3 0.333333 0.666667 0.166667
3 0.416667 0.625 0.25
3 0.25 0.625 0.25
4 0.333333 0.666667 0.229167
4 0.583333 0.708333 0.145833
3 0.583333 0.791667 0.166667
4 0.583333 0.791667 0.229167
3 0.5 0.666667 0.166667
4 0.5 0.666667 0.229167
3 0.666667 0.666667 0.166667
3 0.583333 0.625 0.25
3 0.666667 0.75 0.25
4 0.666667 0.666667 0.229167
3 0.5 0.75 0.25
1 0.834598 0.752879 0.252702
4 0.916667 0.708333 0.145833
4 0.75 0.708333 0.145833
3 0.916667 0.791667 0.166667
4 0.916667 0.791667 0.229167
3 0.75 0.791667 0.166667
4 0.75 0.791667 0.229167
3 0.833333 0.666667 0.166667
4 0.833333 0.666667 0.229167
3 0.916667 0.625 0.25
3 0.75 0.625 0.25
4 0.0833333 0.958333 0.145833
4 0.166667 0.833333 0.145833
3 0 0.916667 0.166667
4 0 0.833333 0.145833
4 0 0.916667 0.229167
3 0.166667 0.916667 0.166667
3 0.0833333 0.875 0.25
4 0.166667 0.916667 0.229167
4 0.416667 0.958333 0.145833
4 0.25 0.958333 0.145833
3 0.333333 0.916667 0.166667
4 0.333333 0.833333 0.145833
4 0.333333 0.916667 0.229167
3 0.416667 0.875 0.25
3 0.25 0.875 0.25
4 0.583333 0.958333 0.145833
4 0.5 0.833333 0.145833
3 0.666667 0.916667 0.166667
4 0.666667 0.833333 0.145833
4 0.666667 0.916667 0.229167
3 0.5 0.916667 0.166667
3 0.583333 0.875 0.25
4 0.5 0.916667 0.229167
1 0.913195 0.878084 0.252559
4 0.916667 0.958333 0.145833
4 0.75 0.958333 0.145833
4 0.833333 0.833333 0.145833
3 0.833333 0.916667 0.166667
3 0.75 0.875 0.25
4 0.833333 0.916667 0.229167
2 0.0839923 0.12937 0.311572
2 0.170419 -0.000818354 0.313463
1 -0.00329107 0.0824873 0.331299
2 0.00482923 -0.00165045 0.309718
2 -9.44844e-05 0.0823213 0.394248
1 0.166712 0.0813996 0.331296
1 0.0874303 0.0401146 0.416067
1 0.166748 0.167145 0.416132
2 0.165283 0.0813491 0.396711
1 -0.00204792 0.163142 0.415711
2 0.422046 0.128841 0.313391
2 0.252505 0.123323 0.311934
1 0.333935 0.085412 0.333975
2 0.331672 0.0044364 0.310567
2 0.330325 0.0814988 0.395758
1 0.419604 0.0433985 0.415407
1 0.24903 0.0435148 0.418916
1 0.331009 0.164464 0.416919
2 0.583788 0.123773 0.310221
2 0.505592 0.00250326 0.309613
1 0.667475 0.0852687 0.331476
2 0.667391 -0.00479608 0.312048
2 0.671751 0.0842319 0.397474
1 0.504976 0.0840765 0.331079
1 0.584499 0.0400426 0.416806
1 0.502126 0.168412 0.414721
2 0.505767 0.0866245 0.39406
1 0.670588 0.163339 0.415463
2 0.918361 0.122227 0.315282
2 0.74751 0.121881 0.311021
2 0.833503 0.00258486 0.310596
1 0.833734 0.0857713 0.335511
1 0.915828 0.0393896 0.415576
1 0.749961 0.0408417 0.41844
1 0.834796 0.168936 0.41641
2 0.827722 0.0836418 0.393466
2 0.087829 0.376414 0.309822
2 -0.00617436 0.251158 0.31412
1 0.078415 0.208431 0.336269
1 0.164171 0.333484 0.333176
2 0.168702 0.249681 0.314649
2 0.0813724 0.207613 0.396978
2 0.162472 0.331272 0.394266
1 -0.00344615 0.335352 0.331099
1 0.0824403 0.289893 0.416666
2 -0.00327438 0.334689 0.392234
2 0.418383 0.377828 0.316192
2 0.249325 0.373965 0.309631
2 0.334275 0.25173 0.315535
1 0.420404 0.206774 0.334833
2 0.411962 0.20531 0.398997
1 0.24734 0.208799 0.334687
2 0.253514 0.207123 0.398845
1 0.333613 0.330612 0.332739
1 0.417449 0.287619 0.418888
1 0.246659 0.293666 0.415374
2 0.330588 0.328102 0.395112
2 0.579163 0.370792 0.310775
2 0.670833 0.25165 0.312834
1 0.588151 0.205909 0.335495
1 0.499023 0.333052 0.331856
2 0.504893 0.247353 0.315768
2 0.582136 0.208728 0.397053
2 0.505332 0.327897 0.397681
1 0.669187 0.33453 0.334128
1 0.588801 0.290186 0.41489
2 0.672885 0.329546 0.397178
2 0.911888 0.371278 0.314423
2 0.750594 0.376348 0.309834
1 0.914389 0.208208 0.332545
1 0.753369 0.211782 0.33186
1 0.833364 0.334781 0.331815
2 0.831729 0.248486 0.310029
2 0.91179 0.21076 0.398432
2 0.752907 0.210629 0.398456
2 0.829387 0.332906 0.394082
1 0.919781 0.293213 0.415033
1 0.753764 0.289571 0.417697
2 0.168303 0.49604 0.314333
1 0.0846916 0.461606 0.332768
1 0.000117996 0.580199 0.335141
2 -0.000766906 0.50119 0.311895
2 0.0878963 0.461235 0.398157
2 -3.80069e-05 0.581618 0.39436
1 0.165265 0.58201 0.330677
1 0.0870955 0.543109 0.414139
2 0.163517 0.583579 0.392285
1 0.00229656 0.418828 0.418606
1 0.168019 0.41805 0.415251
1 0.415402 0.460516 0.335721
1 0.253332 0.459466 0.331971
1 0.329848 0.584149 0.332702
2 0.331724 0.496879 0.311086
2 0.42228 0.461488 0.395989
2 0.246968 0.458736 0.394627
2 0.328931 0.582439 0.394387
1 0.414344 0.539651 0.417321
1 0.24788 0.538579 0.416029
1 0.334006 0.416554 0.414464
2 0.498065 0.498192 0.312156
1 0.578959 0.459711 0.334403
1 0.665525 0.586308 0.330951
2 0.664442 0.50023 0.314575
2 0.585167 0.463015 0.393608
2 0.664382 0.585152 0.397961
1 0.500681 0.581379 0.331908
1 0.578653 0.544105 0.41805
2 0.49728 0.582111 0.396374
1 0.668907 0.419494 0.418495
1 0.500671 0.415706 0.416627
2 0.833237 0.500984 0.30972
1 0.914042 0.455366 0.334809
2 0.9202 0.461043 0.397337
1 0.75215 0.461693 0.335313
2 0.746941 0.462305 0.393772
1 0.83286 0.582495 0.33524
1 0.917758 0.544981 0.418271
1 0.753435 0.539783 0.416901
2 0.834472 0.584273 0.398613
1 0.835326 0.415593 0.417574
2 0.0835674 0.62662 0.314595
2 -0.00237299 0.753264 0.309329
1 0.0837466 0.711969 0.33301
2 0.171323 0.751187 0.312217
2 0.0840934 0.70517 0.394407
1 0.0859512 0.7902 0.416125
1 0.166771 0.66458 0.415755
1 0.0011869 0.663918 0.419199
2 0.419314 0.630109 0.311478
2 0.248273 0.621127 0.309643
2 0.330519 0.752712 0.308604
1 0.412638 0.711127 0.334465
2 0.415589 0.709293 0.398946
1 0.249577 0.709212 0.330997
2 0.252157 0.712478 0.393112
1 0.41781 0.789096 0.419612
1 0.252814 0.794256 0.41514
1 0.329046 0.663207 0.415946
2 0.583911 0.624377 0.3107
2 0.670748 0.747005 0.3117
1 0.582173 0.709601 0.331434
2 0.499121 0.748308 0.311142
2 0.586413 0.709124 0.397849
1 0.580405 0.788907 0.416379
1 0.49847 0.668825 0.415214
1 0.665252 0.664755 0.415797
2 0.917497 0.620759 0.310553
2 0.751091 0.620885 0.313971
1 0.916825 0.709721 0.334486
1 0.747578 0.706108 0.333025
2 0.831611 0.747915 0.314144
2 0.912976 0.707698 0.397602
2 0.744809 0.703288 0.395328
1 0.912923 0.793201 0.414516
1 0.749759 0.793017 0.418701
1 0.834025 0.664409 0.415117
2 0.0814466 0.875091 0.313906
1 0.0879743 0.956889 0.333859
2 0.0840591 0.95428 0.393552
1 0.168548 0.831477 0.332315
2 0.16963 0.829124 0.396332
1 -0.0035207 0.836929 0.33186
1 0.00363565 0.917192 0.41669
2 -0.0011058 0.830333 0.392487
1 0.165837 0.915685 0.418204
2 0.422645 0.878993 0.311294
2 0.248319 0.871669 0.315998
1 0.417898 0.959132 0.332181
1 0.251311 0.95675 0.334933
2 0.411711 0.958742 0.392901
2 0.249897 0.955508 0.397614
1 0.336915 0.832322 0.333087
1 0.328978 0.917047 0.418719
2 0.334494 0.836686 0.394908
2 0.580679 0.878781 0.31109
1 0.586341 0.957802 0.33493
2 0.587503 0.961928 0.39518
1 0.503555 0.831335 0.335289
2 0.503703 0.830238 0.398056
1 0.668744 0.833274 0.334387
1 0.666448 0.918403 0.415195
2 0.671168 0.834545 0.396418
1 0.49694 0.916073 0.417764
2 0.918588 0.877423 0.315614
2 0.753948 0.873333 0.310367
1 0.914662 0.960324 0.33501
2 0.913063 0.956619 0.393243
1 0.751873 0.958436 0.331171
2 0.754975 0.962934 0.392285
1 0.835588 0.833612 0.332768
2 0.833782 0.833806 0.396845
1 0.831917 0.919723 0.415717
2 0.0796045 0.042783 0.478366
2 0.170987 0.162638 0.478469
1 0.0800903 0.126129 0.501392
2 -0.00425947 0.168428 0.479999
1 0.163938 0.000716097 0.498117
1 0.00051465 -0.000808618 0.496967
2 0.415074 0.0412584 0.477994
2 0.254944 0.0365961 0.482992
1 0.415708 0.124317 0.500969
1 0.247049 0.121608 0.501685
2 0.336587 0.169258 0.481553
1 0.335955 -0.00116178 0.49869
2 0.587243 0.0408438 0.482219
2 0.497707 0.168121 0.484409
1 0.583636 0.122749 0.501884
2 0.666266 0.161615 0.478944
1 0.496908 0.00373499 0.498911
1 0.669861 0.00346878 0.500406
2 0.916728 0.0457501 0.47969
2 0.754125 0.0398633 0.483194
2 0.838352 0.164011 0.480544
1 0.920205 0.127891 0.500275
1 0.751277 0.123672 0.502414
1 0.836559 0.00315643 0.498452
2 0.0810919 0.288253 0.482771
1 0.0811295 0.372141 0.500858
1 -0.00349825 0.253196 0.497724
1 0.165694 0.245587 0.498308
2 0.416509 0.291558 0.477858
2 0.248232 0.294286 0.479376
1 0.416821 0.375527 0.497241
1 0.253181 0.373566 0.501376
1 0.333004 0.252127 0.500003
2 0.5877 0.296215 0.483466
1 0.581093 0.379173 0.497195
1 0.665968 0.248933 0.496695
1 0.497477 0.251624 0.501434
2 0.912181 0.292229 0.478258
2 0.753592 0.291175 0.48221
1 0.914692 0.372263 0.501123
1 0.748608 0.373298 0.498215
1 0.835655 0.250431 0.499871
2 0.0821929 0.545103 0.476764
2 -0.00606395 0.418427 0.481747
1 0.16463 0.496577 0.497292
2 0.168786 0.417118 0.482813
1 -0.00393864 0.497387 0.501958
2 0.411996 0.542459 0.478674
2 0.247597 0.538098 0.482135
2 0.32891 0.414116 0.479144
1 0.329191 0.502306 0.498738
2 0.576807 0.542697 0.482963
2 0.670436 0.419574 0.47809
1 0.497076 0.497915 0.501821
2 0.49607 0.420144 0.483646