ITEM: TIMESTEP
10000
ITEM: NUMBER OF ATOMS
162
ITEM: BOX BOUNDS pp pp ff
0.0000000000000000e+00 1.3078800000000001e+01
0.0000000000000000e+00 1.3078800000000001e+01
-8.7192000000000007e+00 8.7192000000000007e+00
ITEM: ATOMS id type xs ys zs
91 4 0 0 0
92 4 0.166667 0 0.125
93 4 0 0.166667 0.125
94 4 0.166667 0.166667 0
95 3 0.0833333 0.0833333 0.0625
96 3 0.25 0.0833333 0.1875
97 3 0.0833333 0.25 0.1875
98 3 0.25 0.25 0.0625
99 4 0.333333 0 0
100 4 0.5 0 0.125
101 4 0.333333 0.166667 0.125
102 4 0.5 0.166667 0
103 3 0.416667 0.0833333 0.0625
104 3 0.583333 0.0833333 0.1875
105 3 0.416667 0.25 0.1875
106 3 0.583333 0.25 0.0625
107 4 0.666667 0 0
108 4 0.833333 0 0.125
109 4 0.666667 0.166667 0.125
110 4 0.833333 0.166667 0
111 3 0.75 0.0833333 0.0625
112 3 0.916667 0.0833333 0.1875
113 3 0.75 0.25 0.1875
114 3 0.916667 0.25 0.0625
115 4 0 0.333333 0
116 4 0.166667 0.333333 0.125
117 4 0 0.5 0.125
118 4 0.166667 0.5 0
119 3 0.0833333 0.416667 0.0625
120 3 0.25 0.416667 0.1875
121 3 0.0833333 0.583333 0.1875
122 3 0.25 0.583333 0.0625
123 4 0.333333 0.333333 0
124 4 0.5 0.333333 0.125
125 4 0.333333 0.5 0.125
126 4 0.5 0.5 0
127 3 0.416667 0.416667 0.0625
128 3 0.583333 0.416667 0.1875
129 3 0.416667 0.583333 0.1875
130 3 0.583333 0.583333 0.0625
131 4 0.666667 0.333333 0
132 4 0.833333 0.333333 0.125
133 4 0.666667 0.5 0.125
134 4 0.833333 0.5 0
135 3 0.75 0.416667 0.0625
136 3 0.916667 0.416667 0.1875
137 3 0.75 0.583333 0.1875
138 3 0.916667 0.583333 0.0625
139 4 0 0.666667 0
140 4 0.166667 0.666667 0.125
141 4 0 0.833333 0.125
142 4 0.166667 0.833333 0
143 3 0.0833333 0.75 0.0625
144 3 0.25 0.75 0.1875
145 3 0.0833333 0.916667 0.1875
146 3 0.25 0.916667 0.0625
147 4 0.333333 0.666667 0
148 4 0.5 0.666667 0.125
149 4 0.333333 0.833333 0.125
150 4 0.5 0.833333 0
151 3 0.416667 0.75 0.0625
152 3 0.583333 0.75 0.1875
153 3 0.416667 0.916667 0.1875
154 3 0.583333 0.916667 0.0625
155 4 0.666667 0.666667 0
156 4 0.833333 0.666667 0.125
157 4 0.666667 0.833333 0.125
158 4 0.833333 0.833333 0
159 3 0.75 0.75 0.0625
160 3 0.916667 0.75 0.1875
161 3 0.75 0.916667 0.1875
162 3 0.916667 0.916667 0.0625
2 2 0.163605 0.00373869 0.374338
3 2 -0.000262027 0.167202 0.377185
5 1 0.0891842 0.0842762 0.312996
6 1 0.250458 0.0814427 0.435768
7 1 0.0899359 0.249155 0.438836
8 1 0.250451 0.253627 0.311555
65 4 0.166667 0.166667 0.25
68 4 0 0 0.25
10 2 0.499705 0.00180486 0.374414
11 2 0.331251 0.16491 0.368682
13 1 0.415284 0.0846736 0.309153
14 1 0.583622 0.0836029 0.433214
15 1 0.415906 0.24893 0.435683
16 1 0.579744 0.255561 0.31467
57 4 0.5 0.166667 0.25
60 4 0.333333 0 0.25
18 2 0.8375 -0.00152298 0.370505
19 2 0.665287 0.161802 0.372038
21 1 0.754756 0.0813846 0.313904
22 1 0.917892 0.079055 0.436415
23 1 0.75318 0.243305 0.436726
24 1 0.915795 0.253439 0.311967
49 4 0.833333 0.166667 0.25
52 4 0.666667 0 0.25
26 2 0.167717 0.329503 0.373297
27 2 0.00159257 0.492623 0.375478
29 1 0.0871093 0.413285 0.310739
30 1 0.247495 0.417153 0.43417
31 1 0.0799835 0.57914 0.435703
32 1 0.248098 0.583409 0.312838
41 4 0.166667 0.5 0.25
44 4 0 0.333333 0.25
33 4 0.5 0.5 0.25
34 2 0.498995 0.339609 0.374372
35 2 0.330987 0.500211 0.373834
36 4 0.333333 0.333333 0.25
37 1 0.414999 0.419804 0.311516
38 1 0.583378 0.414943 0.440944
39 1 0.415822 0.580209 0.437386
40 1 0.586347 0.585868 0.312725
25 4 0.833333 0.5 0.25
28 4 0.666667 0.333333 0.25
42 2 0.825806 0.334674 0.378953
43 2 0.663957 0.493904 0.376845
45 1 0.748894 0.415955 0.310432
46 1 0.917806 0.408458 0.437283
47 1 0.748326 0.575122 0.43618
48 1 0.913189 0.576811 0.313625
17 4 0.166667 0.833333 0.25
20 4 0 0.666667 0.25
50 2 0.163751 0.665979 0.368501
51 2 -0.00433014 0.835532 0.37254
53 1 0.0818594 0.751284 0.311633
54 1 0.247329 0.751562 0.43473
55 1 0.0828367 0.912872 0.431982
56 1 0.250277 0.91785 0.309645
9 4 0.5 0.833333 0.25
12 4 0.333333 0.666667 0.25
58 2 0.504105 0.670275 0.377989
59 2 0.335228 0.830839 0.371734
61 1 0.421233 0.748534 0.312306
62 1 0.58847 0.747268 0.436597
63 1 0.41506 0.915045 0.433365
64 1 0.582828 0.914913 0.314202
1 4 0.833333 0.833333 0.25
4 4 0.666667 0.666667 0.25
66 2 0.828907 0.667375 0.372563
67 2 0.670518 0.824396 0.372513
69 1 0.752455 0.746895 0.310818
70 1 0.916508 0.750126 0.440967
71 1 0.750473 0.912871 0.433284
72 1 0.914775 0.916179 0.30963
73 2 0.000587589 -0.00425944 0.481511
74 2 0.170537 0.160115 0.487718
75 2 0.336046 0.00671438 0.483973
76 2 0.493103 0.157402 0.480271
77 2 0.665073 -0.00698676 0.487127
78 2 0.842123 0.162278 0.484191
79 2 -0.000747738 0.329473 0.489254
80 2 0.166534 0.501349 0.48329
81 2 0.336424 0.333256 0.487338
82 2 0.488562 0.488932 0.489068
83 2 0.671566 0.332634 0.489941
84 2 0.822549 0.485183 0.488578
85 2 -0.00479768 0.661997 0.490991
86 2 0.161663 0.828683 0.484242
87 2 0.325982 0.656404 0.486664
88 2 0.497309 0.831885 0.484698
89 2 0.665075 0.65876 0.489079
90 2 0.835305 0.839385 0.488995
