ITEM: TIMESTEP
10000
ITEM: NUMBER OF ATOMS
588
ITEM: BOX BOUNDS pp pp ff
0.0000000000000000e+00 1.8496216339565233e+01
0.0000000000000000e+00 2.1357590965275090e+01
-1.5102097401354557e+01 1.5102097401354557e+01
ITEM: ATOMS id type xs ys zs
504 4 0.0833333 0.125 0.0625
556 3 0.166667 4.15861e-17 0
557 4 0.166667 4.15861e-17 0.0625
576 3 0 0 0
577 3 0 0.0833333 0.0833333
578 4 0 0 0.0625
580 3 0.166667 0.0833333 0.0833333
481 4 0.416667 0.125 0.0625
482 4 0.25 0.125 0.0625
558 3 0.333333 0 0
559 3 0.333333 0.0833333 0.0833333
560 4 0.333333 0 0.0625
470 4 0.583333 0.125 0.0625
542 4 0.5 0 0.0625
543 3 0.666667 0 0
544 3 0.666667 0.0833333 0.0833333
545 4 0.666667 0 0.0625
562 3 0.5 0.0833333 0.0833333
467 4 0.916667 0.125 0.0625
468 3 0.75 0.125 0
469 4 0.75 0.125 0.0625
540 3 0.833333 4.15861e-17 0
541 4 0.833333 0 0.0625
547 3 0.833333 0.0833333 0.0833333
420 4 0.0833333 0.375 0.0625
505 4 0 0.25 0.0625
507 3 0.0833333 0.208333 0.0833333
508 3 0.166667 0.333333 0.0833333
509 4 0.166667 0.25 0.0625
527 3 0 0.333333 0.0833333
400 4 0.416667 0.375 0.0625
419 4 0.25 0.375 0.0625
483 4 0.333333 0.25 0.0625
485 3 0.416667 0.208333 0.0833333
506 3 0.25 0.208333 0.0833333
513 3 0.333333 0.333333 0.0833333
399 4 0.583333 0.375 0.0625
471 4 0.666667 0.25 0.0625
484 3 0.583333 0.208333 0.0833333
486 3 0.5 0.333333 0.0833333
487 4 0.5 0.25 0.0625
491 3 0.666667 0.333333 0.0833333
393 4 0.916667 0.375 0.0625
394 4 0.75 0.375 0.0625
472 3 0.916667 0.208333 0.0833333
473 3 0.75 0.208333 0.0833333
474 3 0.833333 0.333333 0.0833333
475 4 0.833333 0.25 0.0625
418 3 0.166667 0.5 0
421 4 0.166667 0.5 0.0625
443 3 0 0.5 0
444 3 0.0833333 0.458333 0.0833333
445 3 0 0.583333 0.0833333
446 4 0 0.5 0.0625
449 3 0.166667 0.583333 0.0833333
422 3 0.333333 0.5 0
423 3 0.416667 0.458333 0.0833333
424 3 0.25 0.458333 0.0833333
425 3 0.333333 0.583333 0.0833333
426 4 0.333333 0.5 0.0625
398 3 0.5 0.5 0
401 4 0.5 0.5 0.0625
403 3 0.583333 0.458333 0.0833333
404 3 0.666667 0.583333 0.0833333
405 4 0.666667 0.5 0.0625
430 3 0.5 0.583333 0.0833333
395 4 0.833333 0.5 0.0625
396 3 0.916667 0.458333 0.0833333
402 3 0.75 0.458333 0.0833333
409 3 0.833333 0.583333 0.0833333
361 3 0.0833333 0.625 0
362 4 0.0833333 0.625 0.0625
363 4 0 0.75 0.0625
365 3 0.0833333 0.708333 0.0833333
367 4 0.166667 0.75 0.0625
339 3 0.416667 0.625 0
340 4 0.416667 0.625 0.0625
341 4 0.25 0.625 0.0625
342 4 0.333333 0.75 0.0625
344 3 0.416667 0.708333 0.0833333
364 3 0.25 0.708333 0.0833333
328 4 0.583333 0.625 0.0625
329 4 0.666667 0.75 0.0625
343 3 0.583333 0.708333 0.0833333
346 4 0.5 0.75 0.0625
326 4 0.916667 0.625 0.0625
327 4 0.75 0.625 0.0625
330 3 0.916667 0.708333 0.0833333
331 3 0.75 0.708333 0.0833333
333 4 0.833333 0.75 0.0625
319 4 0.0833333 0.875 0.0625
324 3 0.0833333 0.958333 0.0833333
366 3 0.166667 0.833333 0.0833333
383 3 0 0.833333 0.0833333
313 4 0.416667 0.875 0.0625
318 4 0.25 0.875 0.0625
320 3 0.416667 0.958333 0.0833333
321 3 0.25 0.958333 0.0833333
371 3 0.333333 0.833333 0.0833333
312 4 0.583333 0.875 0.0625
315 3 0.583333 0.958333 0.0833333
345 3 0.5 0.833333 0.0833333
350 3 0.666667 0.833333 0.0833333
308 4 0.916667 0.875 0.0625
309 4 0.75 0.875 0.0625
310 3 0.916667 0.958333 0.0833333
314 3 0.75 0.958333 0.0833333
332 3 0.833333 0.833333 0.0833333
2 3 0 0 0.25
14 3 0.166667 0 0.25
100 4 0 0.166667 0.229167
185 3 0.0833333 0.125 0.25
206 3 0 0.166667 0.166667
579 4 0 0.0833333 0.145833
582 3 0.0833333 0.0416667 0.166667
583 3 0.166667 0.166667 0.166667
584 4 0.166667 0.0833333 0.145833
586 4 0.0833333 0.0416667 0.229167
587 4 0.166667 0.166667 0.229167
7 3 0.333333 0 0.25
245 4 0.333333 0.166667 0.229167
261 3 0.25 0.125 0.25
279 3 0.416667 0.125 0.25
561 4 0.333333 0.0833333 0.145833
564 3 0.416667 0.0416667 0.166667
568 4 0.416667 0.0416667 0.229167
581 3 0.25 0.0416667 0.166667
585 4 0.25 0.0416667 0.229167
588 3 0.333333 0.166667 0.166667
24 3 0.666667 2.0793e-17 0.25
42 3 0.5 2.0793e-17 0.25
546 4 0.666667 0.0833333 0.145833
563 3 0.583333 0.0416667 0.166667
565 3 0.5 0.166667 0.166667
566 4 0.5 0.0833333 0.145833
567 4 0.583333 0.0416667 0.229167
569 4 0.5 0.166667 0.229167
570 3 0.666667 0.166667 0.166667
572 3 0.583333 0.125 0.25
574 4 0.666667 0.166667 0.229167
62 3 0.833333 0 0.25
548 3 0.916667 0.0416667 0.166667
549 3 0.75 0.0416667 0.166667
550 3 0.833333 0.166667 0.166667
551 4 0.833333 0.0833333 0.145833
552 4 0.916667 0.0416667 0.229167
553 4 0.75 0.0416667 0.229167
554 4 0.833333 0.166667 0.229167
555 3 0.916667 0.125 0.25
571 3 0.75 0.125 0.25
65 3 0.166667 0.25 0.25
169 3 0 0.25 0.25
511 4 0.0833333 0.208333 0.145833
512 4 0.166667 0.333333 0.145833
528 3 0.0833333 0.291667 0.166667
530 4 0 0.333333 0.145833
531 4 0.0833333 0.291667 0.229167
535 3 0.0833333 0.375 0.25
259 3 0.333333 0.25 0.25
489 4 0.416667 0.208333 0.145833
510 4 0.25 0.208333 0.145833
514 3 0.416667 0.291667 0.166667
515 3 0.25 0.291667 0.166667
517 4 0.333333 0.333333 0.145833
518 4 0.416667 0.291667 0.229167
519 4 0.25 0.291667 0.229167
523 3 0.416667 0.375 0.25
534 3 0.25 0.375 0.25
209 3 0.5 0.25 0.25
488 4 0.583333 0.208333 0.145833
490 4 0.5 0.333333 0.145833
493 3 0.583333 0.291667 0.166667
495 4 0.666667 0.333333 0.145833
497 4 0.583333 0.291667 0.229167
522 3 0.583333 0.375 0.25
573 3 0.666667 0.25 0.25
476 4 0.916667 0.208333 0.145833
477 4 0.75 0.208333 0.145833
478 4 0.833333 0.333333 0.145833
479 3 0.916667 0.291667 0.166667
480 4 0.916667 0.291667 0.229167
492 3 0.75 0.291667 0.166667
496 4 0.75 0.291667 0.229167
500 3 0.916667 0.375 0.25
501 3 0.75 0.375 0.25
575 3 0.833333 0.25 0.25
447 4 0.0833333 0.458333 0.145833
448 4 0 0.583333 0.145833
451 3 0.0833333 0.541667 0.166667
453 4 0.166667 0.583333 0.145833
455 4 0.0833333 0.541667 0.229167
529 3 0 0.416667 0.166667
532 4 0 0.416667 0.229167
533 3 0.166667 0.416667 0.166667
536 3 0.166667 0.5 0.25
537 4 0.166667 0.416667 0.229167
539 3 0 0.5 0.25
427 4 0.416667 0.458333 0.145833
428 4 0.25 0.458333 0.145833
429 4 0.333333 0.583333 0.145833
432 3 0.416667 0.541667 0.166667
436 4 0.416667 0.541667 0.229167
450 3 0.25 0.541667 0.166667
454 4 0.25 0.541667 0.229167
516 3 0.333333 0.416667 0.166667
520 4 0.333333 0.416667 0.229167
538 3 0.333333 0.5 0.25
407 4 0.583333 0.458333 0.145833
408 4 0.666667 0.583333 0.145833
431 3 0.583333 0.541667 0.166667
434 4 0.5 0.583333 0.145833
435 4 0.583333 0.541667 0.229167
494 3 0.666667 0.416667 0.166667
498 4 0.666667 0.416667 0.229167
521 3 0.5 0.416667 0.166667
524 3 0.5 0.5 0.25
525 4 0.5 0.416667 0.229167
526 3 0.666667 0.5 0.25
397 4 0.916667 0.458333 0.145833
406 4 0.75 0.458333 0.145833
410 3 0.916667 0.541667 0.166667
411 3 0.75 0.541667 0.166667
413 4 0.833333 0.583333 0.145833
414 4 0.916667 0.541667 0.229167
415 4 0.75 0.541667 0.229167
499 3 0.833333 0.416667 0.166667
502 3 0.833333 0.5 0.25
503 4 0.833333 0.416667 0.229167
369 4 0.0833333 0.708333 0.145833
384 3 0.0833333 0.791667 0.166667
387 4 0.0833333 0.791667 0.229167
452 3 0.166667 0.666667 0.166667
456 4 0.166667 0.666667 0.229167
462 3 0 0.666667 0.166667
463 3 0.0833333 0.625 0.25
464 3 0 0.75 0.25
465 4 0 0.666667 0.229167
466 3 0.166667 0.75 0.25
38 1 0.331118 0.746368 0.249241
348 4 0.416667 0.708333 0.145833
368 4 0.25 0.708333 0.145833
372 3 0.416667 0.791667 0.166667
373 3 0.25 0.791667 0.166667
376 4 0.416667 0.791667 0.229167
377 4 0.25 0.791667 0.229167
457 3 0.333333 0.666667 0.166667
458 3 0.416667 0.625 0.25
459 3 0.25 0.625 0.25
460 4 0.333333 0.666667 0.229167
347 4 0.583333 0.708333 0.145833
352 3 0.583333 0.791667 0.166667
356 4 0.583333 0.791667 0.229167
433 3 0.5 0.666667 0.166667
437 4 0.5 0.666667 0.229167
438 3 0.666667 0.666667 0.166667
440 3 0.583333 0.625 0.25
441 3 0.666667 0.75 0.25
442 4 0.666667 0.666667 0.229167
461 3 0.5 0.75 0.25
28 1 0.833118 0.750714 0.25188
334 4 0.916667 0.708333 0.145833
335 4 0.75 0.708333 0.145833
337 3 0.916667 0.791667 0.166667
338 4 0.916667 0.791667 0.229167
351 3 0.75 0.791667 0.166667
355 4 0.75 0.791667 0.229167
412 3 0.833333 0.666667 0.166667
416 4 0.833333 0.666667 0.229167
417 3 0.916667 0.625 0.25
439 3 0.75 0.625 0.25
325 4 0.0833333 0.958333 0.145833
370 4 0.166667 0.833333 0.145833
385 3 0 0.916667 0.166667
386 4 0 0.833333 0.145833
388 4 0 0.916667 0.229167
389 3 0.166667 0.916667 0.166667
391 3 0.0833333 0.875 0.25
392 4 0.166667 0.916667 0.229167
322 4 0.416667 0.958333 0.145833
323 4 0.25 0.958333 0.145833
374 3 0.333333 0.916667 0.166667
375 4 0.333333 0.833333 0.145833
378 4 0.333333 0.916667 0.229167
381 3 0.416667 0.875 0.25
390 3 0.25 0.875 0.25
317 4 0.583333 0.958333 0.145833
349 4 0.5 0.833333 0.145833
353 3 0.666667 0.916667 0.166667
354 4 0.666667 0.833333 0.145833
357 4 0.666667 0.916667 0.229167
379 3 0.5 0.916667 0.166667
380 3 0.583333 0.875 0.25
382 4 0.5 0.916667 0.229167
1 1 0.918911 0.873399 0.24989
311 4 0.916667 0.958333 0.145833
316 4 0.75 0.958333 0.145833
336 4 0.833333 0.833333 0.145833
358 3 0.833333 0.916667 0.166667
359 3 0.75 0.875 0.25
360 4 0.833333 0.916667 0.229167
207 2 0.0776448 0.126431 0.31203
260 2 0.16814 -0.000889157 0.315027
280 1 -0.00139083 0.0848312 0.33681
281 2 0.00126966 -0.00484752 0.314474
282 2 0.00247447 0.083616 0.401921
283 1 0.165729 0.0815316 0.331725
285 1 0.0801651 0.04031 0.420296
286 1 0.164654 0.16675 0.417347
287 2 0.167487 0.0821851 0.395818
297 1 -0.00154539 0.169003 0.420976
182 2 0.419761 0.118158 0.319453
183 2 0.244481 0.127829 0.313729
262 1 0.333626 0.0773574 0.335936
263 2 0.333133 -0.0027814 0.308336
264 2 0.331133 0.0838415 0.398347
267 1 0.417067 0.0419111 0.41672
284 1 0.243735 0.0429311 0.42131
291 1 0.333076 0.164739 0.41811
171 2 0.586837 0.123088 0.313433
246 2 0.501012 -0.000875404 0.311456
247 1 0.673636 0.0797895 0.334759
248 2 0.66902 -0.00191531 0.311537
249 2 0.666465 0.0818394 0.395113
265 1 0.501543 0.078038 0.336726
266 1 0.58643 0.0410515 0.416867
268 1 0.500071 0.167458 0.416302
269 2 0.50621 0.0795587 0.39735
273 1 0.669091 0.164555 0.417502
168 2 0.917904 0.125892 0.314336
170 2 0.757585 0.124047 0.313386
244 2 0.833983 0.000158356 0.310969
250 1 0.836314 0.081669 0.336955
251 1 0.911646 0.0426644 0.42132
252 1 0.74857 0.0392809 0.421392
253 1 0.835847 0.166888 0.421033
254 2 0.832199 0.0838034 0.396405
121 2 0.0857855 0.37193 0.316213
208 2 0.000323844 0.252002 0.315874
211 1 0.079859 0.209964 0.337334
212 1 0.167847 0.326908 0.334573
213 2 0.164499 0.246582 0.312059
215 2 0.0791484 0.209024 0.399807
216 2 0.171508 0.327664 0.397326
231 1 0.00266804 0.336817 0.334516
232 1 0.0849984 0.292064 0.418518
234 2 0.00456816 0.333596 0.399706
102 2 0.416851 0.367958 0.311594
120 2 0.248155 0.369417 0.311857
184 2 0.330027 0.249177 0.313641
187 1 0.415019 0.203919 0.336714
191 2 0.413134 0.213197 0.394573
210 1 0.248593 0.207607 0.33401
214 2 0.250834 0.211334 0.398674
217 1 0.333798 0.329701 0.334689
218 1 0.413187 0.2906 0.419223
219 1 0.251979 0.291666 0.417965
221 2 0.334326 0.329923 0.397365
101 2 0.585615 0.376709 0.31174
172 2 0.667063 0.248839 0.313755
186 1 0.58409 0.209932 0.333182
188 1 0.501243 0.335754 0.335469
189 2 0.498545 0.249248 0.312455
190 2 0.580457 0.210017 0.394596
192 2 0.493544 0.331511 0.401395
193 1 0.662534 0.331388 0.334428
195 1 0.576394 0.289822 0.416843
197 2 0.658925 0.332549 0.397141
95 2 0.917925 0.378153 0.314596
96 2 0.745887 0.381021 0.315685
173 1 0.913552 0.210774 0.334109
174 1 0.752458 0.208169 0.336125
175 1 0.83663 0.336891 0.334018
176 2 0.838361 0.256305 0.310873
177 2 0.914861 0.209347 0.397959
178 2 0.754963 0.204297 0.399225
179 2 0.833003 0.335364 0.400355
180 1 0.915684 0.293842 0.416227
194 1 0.752769 0.28773 0.417378
122 2 0.165508 0.501175 0.31197
144 1 0.0837143 0.457452 0.333031
145 1 -0.00131367 0.583793 0.333602
146 2 -0.00101682 0.505248 0.313114
147 2 0.0871743 0.454213 0.3987
148 2 -5.83394e-05 0.579587 0.394367
149 1 0.163565 0.582926 0.334808
151 1 0.0865124 0.539477 0.417972
153 2 0.169855 0.578184 0.397904
233 1 0.00145817 0.418603 0.421296
237 1 0.167283 0.414819 0.417783
123 1 0.415594 0.458825 0.334009
124 1 0.248213 0.452599 0.333838
125 1 0.3326 0.581029 0.332885
126 2 0.333796 0.496155 0.309775
127 2 0.408416 0.455566 0.395583
128 2 0.247799 0.45857 0.391881
129 2 0.342706 0.58364 0.397635
132 1 0.416946 0.543439 0.419602
150 1 0.255271 0.541947 0.419564
220 1 0.328903 0.417133 0.417954
103 2 0.503362 0.496809 0.309853
105 1 0.58625 0.458979 0.335463
106 1 0.668609 0.58339 0.33146
107 2 0.670864 0.501833 0.312235
109 2 0.581628 0.460998 0.396606
110 2 0.667189 0.579599 0.395232
130 1 0.498674 0.58567 0.33676
131 1 0.583025 0.545093 0.417306
134 2 0.503311 0.580519 0.396669
196 1 0.661688 0.419096 0.419362
225 1 0.495744 0.415906 0.416144
97 2 0.833333 0.499376 0.309908
98 1 0.911457 0.461519 0.335225
99 2 0.919987 0.457028 0.398372
104 1 0.748044 0.46061 0.333674
108 2 0.747849 0.459891 0.397189
111 1 0.829585 0.585211 0.332137
112 1 0.916979 0.541109 0.416698
113 1 0.750189 0.541973 0.418434
115 2 0.834051 0.586787 0.399704
201 1 0.828736 0.420968 0.418939
63 2 0.0847731 0.625275 0.314492
64 2 -0.00259029 0.748106 0.317517
67 1 0.0831303 0.706933 0.336152
69 2 0.166989 0.744265 0.313207
71 2 0.0838903 0.709092 0.402425
86 1 0.0814216 0.789755 0.418254
152 1 0.172734 0.666291 0.42153
163 1 -0.00496695 0.665055 0.417887
39 2 0.415096 0.625138 0.312351
40 2 0.246993 0.621313 0.313288
41 2 0.335068 0.746684 0.316227
44 1 0.414475 0.705387 0.340445
48 2 0.413054 0.710774 0.398844
66 1 0.250434 0.702429 0.334439
70 2 0.251293 0.714342 0.398723
74 1 0.421248 0.791872 0.417703
75 1 0.250801 0.789985 0.41722
157 1 0.335519 0.664991 0.421666
26 2 0.584531 0.627629 0.310649
27 2 0.668041 0.744226 0.313239
43 1 0.576232 0.709964 0.335006
46 2 0.492822 0.750558 0.309346
47 2 0.577791 0.708165 0.402399
52 1 0.584065 0.790127 0.417206
133 1 0.499643 0.663668 0.420844
138 1 0.664181 0.667002 0.419977
23 2 0.911518 0.625843 0.315658
25 2 0.747933 0.620242 0.311274
29 1 0.913449 0.708449 0.335412
30 1 0.744486 0.705015 0.335394
32 2 0.830426 0.751711 0.318288
33 2 0.91783 0.703851 0.399096
34 2 0.742241 0.703828 0.401905
36 1 0.914162 0.790567 0.421174
51 1 0.747283 0.791533 0.419651
114 1 0.830021 0.668798 0.424852
16 2 0.0787122 0.875443 0.313379
21 1 0.0879448 0.958538 0.33558
22 2 0.084206 0.958591 0.398174
68 1 0.161103 0.833152 0.332575
72 2 0.168281 0.831918 0.393743
85 1 -0.00442806 0.834557 0.338272
87 1 -0.000896311 0.917028 0.41937
88 2 -0.000433536 0.836616 0.396658
91 1 0.164865 0.912858 0.416909
9 2 0.414241 0.868075 0.312908
15 2 0.243474 0.868279 0.312782
17 1 0.411785 0.955243 0.33281
18 1 0.247294 0.956476 0.334072
19 2 0.425359 0.958955 0.400369
20 2 0.242864 0.954499 0.397903
73 1 0.326909 0.829943 0.333221
76 1 0.335147 0.915635 0.415545
77 2 0.336429 0.830092 0.397874
8 2 0.58378 0.874448 0.313569
11 1 0.588577 0.955987 0.332969
13 2 0.591864 0.958059 0.397688
45 1 0.498695 0.835856 0.330919
49 2 0.503536 0.836705 0.400601
50 1 0.661971 0.829092 0.334067
53 1 0.67138 0.918507 0.418066
54 2 0.665226 0.834993 0.397206
81 1 0.50851 0.918086 0.418288
3 2 0.916456 0.878105 0.31025
4 2 0.75214 0.865453 0.313397
5 1 0.915319 0.960164 0.335907
6 2 0.914898 0.961609 0.395841
10 1 0.750099 0.956917 0.334871
12 2 0.748279 0.959727 0.395371
31 1 0.836415 0.834651 0.334781
35 2 0.824895 0.831491 0.398463
58 1 0.831948 0.918778 0.417269
289 2 0.0813114 0.0452388 0.488244
290 2 0.16253 0.161017 0.481608
298 1 0.0788206 0.125147 0.504534
300 2 -0.00165763 0.166567 0.489264
305 1 0.162352 -0.00535327 0.505658
307 1 -0.00457237 0.00149019 0.505332
271 2 0.415768 0.041635 0.482188
288 2 0.244043 0.0351644 0.482774
292 1 0.417166 0.12483 0.498045
293 1 0.251691 0.120919 0.504509
295 2 0.335651 0.168746 0.484105
306 1 0.334996 -0.00633383 0.501742
270 2 0.58694 0.0406587 0.481836
272 2 0.502969 0.161651 0.480932
275 1 0.590285 0.122232 0.499658
277 2 0.672522 0.171969 0.483865
303 1 0.50431 -0.00122124 0.50088
304 1 0.666883 -0.00197482 0.501678
255 2 0.916282 0.0436359 0.491089
256 2 0.752898 0.0343471 0.484653
257 2 0.838651 0.172581 0.487482
258 1 0.917028 0.123164 0.508512
274 1 0.751332 0.131193 0.500735
302 1 0.830862 -0.00246595 0.502933
235 2 0.0860287 0.291904 0.484325
239 1 0.0821734 0.379484 0.505691
299 1 -0.00161617 0.25844 0.500192
301 1 0.169537 0.245314 0.499979
222 2 0.409921 0.289767 0.48685
223 2 0.249738 0.289508 0.484144
227 1 0.418142 0.378007 0.497729
238 1 0.245703 0.371252 0.500798
294 1 0.332646 0.250933 0.504293
199 2 0.584219 0.290521 0.483817
226 1 0.578605 0.372203 0.49725
276 1 0.663766 0.253085 0.50163
296 1 0.499443 0.245738 0.497034
181 2 0.917803 0.299667 0.482681
198 2 0.749734 0.29275 0.485461
202 1 0.913055 0.379385 0.501951
203 1 0.747495 0.376887 0.498801
278 1 0.835248 0.252829 0.500346
155 2 0.0841617 0.541749 0.48068
236 2 0.000876511 0.418061 0.481672
240 1 0.167899 0.498598 0.500419
241 2 0.16533 0.418135 0.483426
243 1 2.32462e-06 0.503533 0.501621
136 2 0.410394 0.544849 0.48256
154 2 0.260202 0.538741 0.483355
224 2 0.330177 0.421645 0.481384
242 1 0.336397 0.499887 0.505051
135 2 0.581415 0.542415 0.480407
200 2 0.662667 0.415698 0.480415
228 1 0.502056 0.498427 0.498497
229 2 0.500933 0.41799 0.478366
230 1 0.665952 0.496672 0.502161
116 2 0.91318 0.542623 0.483101
117 2 0.749894 0.541714 0.485261
204 1 0.832457 0.506032 0.50254
205 2 0.825835 0.42387 0.482066
89 2 0.0818521 0.789065 0.484856
156 2 0.167683 0.661511 0.483746
164 1 0.0812605 0.62636 0.498754
165 1 -0.00245487 0.75047 0.499962
166 2 -0.000560951 0.667162 0.48188
167 1 0.162948 0.746598 0.50285
78 2 0.423666 0.787444 0.481605
79 2 0.251652 0.791892 0.483098
158 1 0.417623 0.623595 0.504322
159 1 0.246021 0.620575 0.506835
160 1 0.337699 0.746573 0.501579
161 2 0.330948 0.662432 0.482726
56 2 0.584705 0.786466 0.481578
137 2 0.498917 0.670073 0.487037
140 1 0.580797 0.622805 0.503498
141 1 0.66209 0.744748 0.503224
142 2 0.661941 0.662845 0.485318
162 1 0.500652 0.750089 0.507548
37 2 0.912644 0.78966 0.480934
55 2 0.749606 0.787591 0.486346
118 2 0.829035 0.664684 0.491784
119 1 0.91253 0.625506 0.503901
139 1 0.745664 0.623987 0.505172
143 1 0.832775 0.748261 0.506075
90 2 0.00175362 0.917632 0.488193
93 1 0.0790296 0.873212 0.503338
94 2 0.162399 0.914605 0.482845
80 2 0.333703 0.915192 0.483718
83 1 0.419329 0.872389 0.502681
92 1 0.247781 0.874512 0.503258
57 2 0.668698 0.91473 0.481427
82 1 0.586843 0.87027 0.49771
84 2 0.503185 0.914883 0.480903
59 1 0.912055 0.872934 0.501228
60 1 0.750229 0.874312 0.50028
61 2 0.835651 0.917265 0.48432
