579
Atoms. Timestep: 0
2 16.9549 18.6879 -7.55105
4 0 0 -7.55105
1 16.9549 18.6879 -5.66329
1 13.8722 18.6879 -5.66329
2 16.9549 20.4677 -5.03403
1 16.9549 20.4677 -3.14627
4 6.16541 0 -7.55105
1 10.7895 18.6879 -5.66329
1 7.70676 18.6879 -5.66329
2 13.8722 20.4677 -5.03403
2 10.7895 20.4677 -5.03403
1 13.8722 20.4677 -3.14627
1 10.7895 20.4677 -3.14627
4 3.0827 0 -7.55105
1 4.62405 18.6879 -5.66329
1 1.54135 18.6879 -5.66329
2 7.70676 20.4677 -5.03403
2 4.62405 20.4677 -5.03403
1 7.70676 20.4677 -3.14627
1 4.62405 20.4677 -3.14627
2 1.54135 20.4677 -5.03403
1 1.54135 20.4677 -3.14627
1 16.9549 13.3485 -5.66329
4 12.3308 4.44089e-16 -7.55105
1 13.8722 13.3485 -5.66329
1 10.7895 13.3485 -5.66329
1 12.3308 16.0182 -5.66329
2 15.4135 16.0182 -7.55105
2 16.9549 15.1283 -5.03403
2 13.8722 15.1283 -5.03403
2 15.4135 17.798 -5.03403
1 15.4135 16.0182 -5.66329
1 16.9549 15.1283 -3.14627
1 13.8722 15.1283 -3.14627
1 15.4135 17.798 -3.14627
2 16.9549 16.9081 -2.51702
1 16.9549 16.9081 -0.629254
2 6.16541 16.0182 -7.55105
1 7.70676 13.3485 -5.66329
1 4.62405 13.3485 -5.66329
1 6.16541 16.0182 -5.66329
4 9.24811 4.44089e-16 -7.55105
2 10.7895 15.1283 -5.03403
2 7.70676 15.1283 -5.03403
2 9.24811 17.798 -5.03403
1 9.24811 16.0182 -5.66329
1 10.7895 15.1283 -3.14627
1 7.70676 15.1283 -3.14627
1 9.24811 17.798 -3.14627
2 12.3308 17.798 -5.03403
2 13.8722 16.9081 -2.51702
2 10.7895 16.9081 -2.51702
2 12.3308 19.5778 -2.51702
1 12.3308 17.798 -3.14627
1 13.8722 16.9081 -0.629254
1 10.7895 16.9081 -0.629254
1 12.3308 19.5778 -0.629254
2 15.4135 19.5778 -2.51702
2 16.9549 18.6879 0
2 13.8722 18.6879 -1.77636e-15
1 15.4135 19.5778 -0.629254
4 15.4135 0 -7.55105
1 1.54135 13.3485 -5.66329
1 0 16.0182 -5.66329
4 3.0827 5.3394 -7.55105
2 4.62405 15.1283 -5.03403
2 1.54135 15.1283 -5.03403
2 3.0827 17.798 -5.03403
1 3.0827 16.0182 -5.66329
1 4.62405 15.1283 -3.14627
1 1.54135 15.1283 -3.14627
1 3.0827 17.798 -3.14627
2 6.16541 17.798 -5.03403
2 7.70676 16.9081 -2.51702
2 4.62405 16.9081 -2.51702
2 6.16541 19.5778 -2.51702
1 6.16541 17.798 -3.14627
1 7.70676 16.9081 -0.629254
1 4.62405 16.9081 -0.629254
1 6.16541 19.5778 -0.629254
2 9.24811 19.5778 -2.51702
2 10.7895 18.6879 0
2 7.70676 18.6879 0
1 9.24811 19.5778 -0.629254
2 0 17.798 -5.03403
2 1.54135 16.9081 -2.51702
2 0 19.5778 -2.51702
1 0 17.798 -3.14627
1 1.54135 16.9081 -0.629254
1 0 19.5778 -0.629254
2 3.0827 19.5778 -2.51702
2 4.62405 18.6879 0
2 1.54135 18.6879 0
1 3.0827 19.5778 -0.629254
1 16.9549 8.0091 -5.66329
1 13.8722 8.0091 -5.66329
1 15.4135 10.6788 -5.66329
2 16.9549 9.7889 -5.03403
1 16.9549 9.7889 -3.14627
3 0 3.5596 -8.1803
1 10.7895 8.0091 -5.66329
1 7.70676 8.0091 -5.66329
1 9.24811 10.6788 -5.66329
2 13.8722 9.7889 -5.03403
2 10.7895 9.7889 -5.03403
2 12.3308 12.4586 -5.03403
1 12.3308 10.6788 -5.66329
1 13.8722 9.7889 -3.14627
1 10.7895 9.7889 -3.14627
1 12.3308 12.4586 -3.14627
2 15.4135 12.4586 -5.03403
2 16.9549 11.5687 -2.51702
2 13.8722 11.5687 -2.51702
2 15.4135 14.2384 -2.51702
1 15.4135 12.4586 -3.14627
1 16.9549 11.5687 -0.629254
1 13.8722 11.5687 -0.629254
1 15.4135 14.2384 -0.629254
2 16.9549 13.3485 -8.88178e-16
1 4.62405 8.0091 -5.66329
1 1.54135 8.0091 -5.66329
1 3.0827 10.6788 -5.66329
2 7.70676 9.7889 -5.03403
2 4.62405 9.7889 -5.03403
2 6.16541 12.4586 -5.03403
1 6.16541 10.6788 -5.66329
1 7.70676 9.7889 -3.14627
1 4.62405 9.7889 -3.14627
1 6.16541 12.4586 -3.14627
2 9.24811 12.4586 -5.03403
2 10.7895 11.5687 -2.51702
2 7.70676 11.5687 -2.51702
2 9.24811 14.2384 -2.51702
1 9.24811 12.4586 -3.14627
1 10.7895 11.5687 -0.629254
1 7.70676 11.5687 -0.629254
1 9.24811 14.2384 -0.629254
2 12.3308 14.2384 -2.51702
2 10.7895 13.3485 0
2 12.3308 16.0182 0
1 12.3308 14.2384 -0.629254
2 15.4135 16.0182 -8.88178e-16
2 1.54135 9.7889 -5.03403
2 0 12.4586 -5.03403
1 0 10.6788 -5.66329
1 1.54135 9.7889 -3.14627
1 0 12.4586 -3.14627
2 3.0827 12.4586 -5.03403
2 4.62405 11.5687 -2.51702
2 1.54135 11.5687 -2.51702
2 3.0827 14.2384 -2.51702
1 3.0827 12.4586 -3.14627
1 4.62405 11.5687 -0.629254
1 1.54135 11.5687 -0.629254
1 3.0827 14.2384 -0.629254
2 6.16541 14.2384 -2.51702
2 7.70676 13.3485 0
2 4.62405 13.3485 0
2 6.16541 16.0182 0
1 6.16541 14.2384 -0.629254
2 9.24811 16.0182 0
2 0 14.2384 -2.51702
2 1.54135 13.3485 0
2 0 16.0182 0
1 0 14.2384 -0.629254
2 3.0827 16.0182 -8.88178e-16
1 16.9549 2.6697 -5.66329
4 0 5.3394 -7.55105
1 13.8722 2.6697 -5.66329
1 10.7895 2.6697 -5.66329
1 12.3308 5.3394 -5.66329
2 16.9549 4.4495 -5.03403
2 13.8722 4.4495 -5.03403
2 15.4135 7.1192 -5.03403
1 15.4135 5.3394 -5.66329
1 16.9549 4.4495 -3.14627
1 13.8722 4.4495 -3.14627
1 15.4135 7.1192 -3.14627
2 16.9549 6.2293 -2.51702
1 16.9549 6.2293 -0.629254
1 7.70676 2.6697 -5.66329
1 4.62405 2.6697 -5.66329
1 6.16541 5.3394 -5.66329
4 1.54135 2.6697 -7.55105
2 10.7895 4.4495 -5.03403
2 7.70676 4.4495 -5.03403
2 9.24811 7.1192 -5.03403
1 9.24811 5.3394 -5.66329
1 10.7895 4.4495 -3.14627
1 7.70676 4.4495 -3.14627
1 9.24811 7.1192 -3.14627
2 12.3308 7.1192 -5.03403
2 13.8722 6.2293 -2.51702
2 10.7895 6.2293 -2.51702
2 12.3308 8.899 -2.51702
1 12.3308 7.1192 -3.14627
1 13.8722 6.2293 -0.629254
1 10.7895 6.2293 -0.629254
1 12.3308 8.899 -0.629254
2 15.4135 8.899 -2.51702
2 13.8722 8.0091 0
1 15.4135 8.899 -0.629254
4 0 3.5596 -10.0681
1 1.54135 2.6697 -5.66329
1 0 5.3394 -5.66329
4 9.24811 5.3394 -7.55105
2 4.62405 4.4495 -5.03403
2 1.54135 4.4495 -5.03403
2 3.0827 7.1192 -5.03403
1 3.0827 5.3394 -5.66329
1 4.62405 4.4495 -3.14627
1 1.54135 4.4495 -3.14627
1 3.0827 7.1192 -3.14627
2 6.16541 7.1192 -5.03403
2 7.70676 6.2293 -2.51702
2 4.62405 6.2293 -2.51702
2 6.16541 8.899 -2.51702
1 6.16541 7.1192 -3.14627
1 7.70676 6.2293 -0.629254
1 4.62405 6.2293 -0.629254
1 6.16541 8.899 -0.629254
2 9.24811 8.899 -2.51702
2 10.7895 8.0091 0
2 7.70676 8.0091 -4.44089e-16
2 9.24811 10.6788 0
1 9.24811 8.899 -0.629254
2 0 7.1192 -5.03403
2 1.54135 6.2293 -2.51702
2 0 8.899 -2.51702
1 0 7.1192 -3.14627
1 1.54135 6.2293 -0.629254
1 0 8.899 -0.629254
2 3.0827 8.899 -2.51702
2 4.62405 8.0091 0
2 1.54135 8.0091 -4.44089e-16
2 3.0827 10.6788 0
1 3.0827 8.899 -0.629254
2 6.16541 10.6788 0
2 0 10.6788 0
1 15.4135 0 -5.66329
3 6.16541 3.5596 -8.1803
1 9.24811 4.44089e-16 -5.66329
2 12.3308 1.7798 -5.03403
1 12.3308 0 -5.66329
1 12.3308 1.7798 -3.14627
2 15.4135 1.7798 -5.03403
2 16.9549 0.8899 -2.51702
2 13.8722 0.8899 -2.51702
2 15.4135 3.5596 -2.51702
1 15.4135 1.7798 -3.14627
1 16.9549 0.8899 -0.629254
1 13.8722 0.8899 -0.629254
1 15.4135 3.5596 -0.629254
4 6.16541 5.3394 -7.55105
1 3.0827 0 -5.66329
4 4.62405 2.6697 -7.55105
2 6.16541 1.7798 -5.03403
1 6.16541 0 -5.66329
1 6.16541 1.7798 -3.14627
2 9.24811 1.7798 -5.03403
2 10.7895 0.8899 -2.51702
2 7.70676 0.8899 -2.51702
2 9.24811 3.5596 -2.51702
1 9.24811 1.7798 -3.14627
1 10.7895 0.8899 -0.629254
1 7.70676 0.8899 -0.629254
1 9.24811 3.5596 -0.629254
2 12.3308 3.5596 -2.51702
2 10.7895 2.6697 -4.44089e-16
2 12.3308 5.3394 0
1 12.3308 3.5596 -0.629254
4 7.70676 2.6697 -7.55105
2 0 1.7798 -5.03403
1 0 0 -5.66329
1 0 1.7798 -3.14627
2 3.0827 1.7798 -5.03403
2 4.62405 0.8899 -2.51702
2 1.54135 0.8899 -2.51702
2 3.0827 3.5596 -2.51702
1 3.0827 1.7798 -3.14627
1 4.62405 0.8899 -0.629254
1 1.54135 0.8899 -0.629254
1 3.0827 3.5596 -0.629254
2 6.16541 3.5596 -2.51702
2 4.62405 2.6697 0
1 6.16541 3.5596 -0.629254
2 9.24811 5.3394 0
2 0 3.5596 -2.51702
2 1.54135 2.6697 0
2 0 5.3394 0
1 0 3.5596 -0.629254
2 3.0827 5.3394 0
2 15.4135 0 0
2 9.24811 0 0
2 12.3308 0 0
2 3.0827 0 0
2 6.16541 0 0
2 0 0 0
3 16.9549 18.6879 -13.2143
3 13.8722 18.6879 -13.2143
4 16.9549 20.4677 -12.5851
3 16.9549 20.4677 -10.6973
3 10.7895 18.6879 -13.2143
3 7.70676 18.6879 -13.2143
4 13.8722 20.4677 -12.5851
4 10.7895 20.4677 -12.5851
3 13.8722 20.4677 -10.6973
3 10.7895 20.4677 -10.6973
3 4.62405 18.6879 -13.2143
3 1.54135 18.6879 -13.2143
4 7.70676 20.4677 -12.5851
4 4.62405 20.4677 -12.5851
3 7.70676 20.4677 -10.6973
3 4.62405 20.4677 -10.6973
4 1.54135 20.4677 -12.5851
3 1.54135 20.4677 -10.6973
3 16.9549 13.3485 -13.2143
3 13.8722 13.3485 -13.2143
3 10.7895 13.3485 -13.2143
3 12.3308 16.0182 -13.2143
4 16.9549 15.1283 -12.5851
4 13.8722 15.1283 -12.5851
4 15.4135 17.798 -12.5851
3 15.4135 16.0182 -13.2143
3 16.9549 15.1283 -10.6973
3 13.8722 15.1283 -10.6973
3 15.4135 17.798 -10.6973
4 16.9549 16.9081 -10.0681
3 16.9549 16.9081 -8.1803
4 7.70676 13.3485 -15.1021
3 7.70676 13.3485 -13.2143
3 4.62405 13.3485 -13.2143
3 6.16541 16.0182 -13.2143
4 10.7895 15.1283 -12.5851
4 7.70676 15.1283 -12.5851
4 9.24811 17.798 -12.5851
3 9.24811 16.0182 -13.2143
3 10.7895 15.1283 -10.6973
3 7.70676 15.1283 -10.6973
3 9.24811 17.798 -10.6973
4 12.3308 17.798 -12.5851
4 13.8722 16.9081 -10.0681
4 10.7895 16.9081 -10.0681
4 12.3308 19.5778 -10.0681
3 12.3308 17.798 -10.6973
3 13.8722 16.9081 -8.1803
3 10.7895 16.9081 -8.1803
3 12.3308 19.5778 -8.1803
4 15.4135 19.5778 -10.0681
4 13.8722 18.6879 -7.55105
3 15.4135 19.5778 -8.1803
4 1.54135 13.3485 -15.1021
3 1.54135 13.3485 -13.2143
3 0 16.0182 -13.2143
4 4.62405 15.1283 -12.5851
4 1.54135 15.1283 -12.5851
4 3.0827 17.798 -12.5851
3 3.0827 16.0182 -13.2143
3 4.62405 15.1283 -10.6973
3 1.54135 15.1283 -10.6973
3 3.0827 17.798 -10.6973
4 6.16541 17.798 -12.5851
4 7.70676 16.9081 -10.0681
4 4.62405 16.9081 -10.0681
4 6.16541 19.5778 -10.0681
3 6.16541 17.798 -10.6973
3 7.70676 16.9081 -8.1803
3 4.62405 16.9081 -8.1803
3 6.16541 19.5778 -8.1803
4 9.24811 19.5778 -10.0681
4 10.7895 18.6879 -7.55105
4 7.70676 18.6879 -7.55105
3 9.24811 19.5778 -8.1803
4 0 17.798 -12.5851
4 1.54135 16.9081 -10.0681
4 0 19.5778 -10.0681
3 0 17.798 -10.6973
3 1.54135 16.9081 -8.1803
3 0 19.5778 -8.1803
4 3.0827 19.5778 -10.0681
4 4.62405 18.6879 -7.55105
4 1.54135 18.6879 -7.55105
3 3.0827 19.5778 -8.1803
3 16.9549 8.0091 -13.2143
3 13.8722 8.0091 -13.2143
3 15.4135 10.6788 -13.2143
4 16.9549 9.7889 -12.5851
3 16.9549 9.7889 -10.6973
4 9.24811 10.6788 -15.1021
3 10.7895 8.0091 -13.2143
3 7.70676 8.0091 -13.2143
3 9.24811 10.6788 -13.2143
4 13.8722 9.7889 -12.5851
4 10.7895 9.7889 -12.5851
4 12.3308 12.4586 -12.5851
3 12.3308 10.6788 -13.2143
3 13.8722 9.7889 -10.6973
3 10.7895 9.7889 -10.6973
3 12.3308 12.4586 -10.6973
4 15.4135 12.4586 -12.5851
4 16.9549 11.5687 -10.0681
4 13.8722 11.5687 -10.0681
4 15.4135 14.2384 -10.0681
3 15.4135 12.4586 -10.6973
3 16.9549 11.5687 -8.1803
3 13.8722 11.5687 -8.1803
3 15.4135 14.2384 -8.1803
4 16.9549 13.3485 -7.55105
4 3.0827 10.6788 -15.1021
3 4.62405 8.0091 -13.2143
3 1.54135 8.0091 -13.2143
3 3.0827 10.6788 -13.2143
4 6.16541 10.6788 -15.1021
4 7.70676 9.7889 -12.5851
4 4.62405 9.7889 -12.5851
4 6.16541 12.4586 -12.5851
3 6.16541 10.6788 -13.2143
3 7.70676 9.7889 -10.6973
3 4.62405 9.7889 -10.6973
3 6.16541 12.4586 -10.6973
4 9.24811 12.4586 -12.5851
4 10.7895 11.5687 -10.0681
4 7.70676 11.5687 -10.0681
4 9.24811 14.2384 -10.0681
3 9.24811 12.4586 -10.6973
3 10.7895 11.5687 -8.1803
3 7.70676 11.5687 -8.1803
3 9.24811 14.2384 -8.1803
4 12.3308 14.2384 -10.0681
4 13.8722 13.3485 -7.55105
4 10.7895 13.3485 -7.55105
4 12.3308 16.0182 -7.55105
3 12.3308 14.2384 -8.1803
4 0 10.6788 -15.1021
4 1.54135 9.7889 -12.5851
4 0 12.4586 -12.5851
3 0 10.6788 -13.2143
3 1.54135 9.7889 -10.6973
3 0 12.4586 -10.6973
4 3.0827 12.4586 -12.5851
4 4.62405 11.5687 -10.0681
4 1.54135 11.5687 -10.0681
4 3.0827 14.2384 -10.0681
3 3.0827 12.4586 -10.6973
3 4.62405 11.5687 -8.1803
3 1.54135 11.5687 -8.1803
3 3.0827 14.2384 -8.1803
4 6.16541 14.2384 -10.0681
4 7.70676 13.3485 -7.55105
4 4.62405 13.3485 -7.55105
3 6.16541 14.2384 -8.1803
4 9.24811 16.0182 -7.55105
4 0 14.2384 -10.0681
4 1.54135 13.3485 -7.55105
4 0 16.0182 -7.55105
3 0 14.2384 -8.1803
4 3.0827 16.0182 -7.55105
3 16.9549 2.6697 -13.2143
4 13.8722 2.6697 -15.1021
3 13.8722 2.6697 -13.2143
3 10.7895 2.6697 -13.2143
3 12.3308 5.3394 -13.2143
4 16.9549 4.4495 -12.5851
4 13.8722 4.4495 -12.5851
4 15.4135 7.1192 -12.5851
3 15.4135 5.3394 -13.2143
3 16.9549 4.4495 -10.6973
3 13.8722 4.4495 -10.6973
3 15.4135 7.1192 -10.6973
4 16.9549 6.2293 -10.0681
3 16.9549 6.2293 -8.1803
3 7.70676 2.6697 -13.2143
3 4.62405 2.6697 -13.2143
3 6.16541 5.3394 -13.2143
4 10.7895 4.4495 -12.5851
4 7.70676 4.4495 -12.5851
4 9.24811 7.1192 -12.5851
3 9.24811 5.3394 -13.2143
3 10.7895 4.4495 -10.6973
3 7.70676 4.4495 -10.6973
3 9.24811 7.1192 -10.6973
4 12.3308 7.1192 -12.5851
4 13.8722 6.2293 -10.0681
4 10.7895 6.2293 -10.0681
4 12.3308 8.899 -10.0681
3 12.3308 7.1192 -10.6973
3 13.8722 6.2293 -8.1803
3 10.7895 6.2293 -8.1803
3 12.3308 8.899 -8.1803
4 15.4135 8.899 -10.0681
4 16.9549 8.0091 -7.55105
4 13.8722 8.0091 -7.55105
4 15.4135 10.6788 -7.55105
3 15.4135 8.899 -8.1803
3 1.54135 2.6697 -13.2143
3 0 5.3394 -13.2143
4 4.62405 4.4495 -12.5851
4 1.54135 4.4495 -12.5851
4 3.0827 7.1192 -12.5851
3 3.0827 5.3394 -13.2143
3 4.62405 4.4495 -10.6973
3 1.54135 4.4495 -10.6973
3 3.0827 7.1192 -10.6973
4 6.16541 7.1192 -12.5851
4 7.70676 6.2293 -10.0681
4 4.62405 6.2293 -10.0681
4 6.16541 8.899 -10.0681
3 6.16541 7.1192 -10.6973
3 7.70676 6.2293 -8.1803
3 4.62405 6.2293 -8.1803
3 6.16541 8.899 -8.1803
4 9.24811 8.899 -10.0681
4 10.7895 8.0091 -7.55105
4 7.70676 8.0091 -7.55105
4 9.24811 10.6788 -7.55105
3 9.24811 8.899 -8.1803
4 12.3308 10.6788 -7.55105
4 0 7.1192 -12.5851
4 1.54135 6.2293 -10.0681
4 0 8.899 -10.0681
3 0 7.1192 -10.6973
3 1.54135 6.2293 -8.1803
3 0 8.899 -8.1803
4 3.0827 8.899 -10.0681
4 4.62405 8.0091 -7.55105
4 1.54135 8.0091 -7.55105
4 3.0827 10.6788 -7.55105
3 3.0827 8.899 -8.1803
4 6.16541 10.6788 -7.55105
4 0 10.6788 -7.55105
4 15.4135 8.88178e-16 -15.1021
3 15.4135 0 -13.2143
3 9.24811 0 -13.2143
4 12.3308 0 -15.1021
4 12.3308 1.7798 -12.5851
3 12.3308 0 -13.2143
3 12.3308 1.7798 -10.6973
4 15.4135 1.7798 -12.5851
4 16.9549 0.8899 -10.0681
4 13.8722 0.8899 -10.0681
4 15.4135 3.5596 -10.0681
3 15.4135 1.7798 -10.6973
3 16.9549 0.8899 -8.1803
3 13.8722 0.8899 -8.1803
3 15.4135 3.5596 -8.1803
4 16.9549 2.6697 -7.55105
4 3.0827 8.88178e-16 -15.1021
3 3.0827 8.88178e-16 -13.2143
4 6.16541 0 -15.1021
4 6.16541 1.7798 -12.5851
3 6.16541 0 -13.2143
3 6.16541 1.7798 -10.6973
4 9.24811 1.7798 -12.5851
4 10.7895 0.8899 -10.0681
4 7.70676 0.8899 -10.0681
4 9.24811 3.5596 -10.0681
3 9.24811 1.7798 -10.6973
3 10.7895 0.8899 -8.1803
3 7.70676 0.8899 -8.1803
3 9.24811 3.5596 -8.1803
4 12.3308 3.5596 -10.0681
4 13.8722 2.6697 -7.55105
4 10.7895 2.6697 -7.55105
4 12.3308 5.3394 -7.55105
3 12.3308 3.5596 -8.1803
4 15.4135 5.3394 -7.55105
4 0 0 -15.1021
4 0 1.7798 -12.5851
3 0 0 -13.2143
3 0 1.7798 -10.6973
4 3.0827 1.7798 -12.5851
4 4.62405 0.8899 -10.0681
4 1.54135 0.8899 -10.0681
4 3.0827 3.5596 -10.0681
3 3.0827 1.7798 -10.6973
3 4.62405 0.8899 -8.1803
3 1.54135 0.8899 -8.1803
3 3.0827 3.5596 -8.1803
4 6.16541 3.5596 -10.0681
579
Atoms. Timestep: 100
2 16.904 18.7371 -7.48068
4 0 0 -7.55105
1 16.9779 18.7123 -5.61239
1 13.908 18.6707 -5.69606
2 16.9218 20.5059 -4.97495
1 16.9182 20.4582 -3.18873
4 6.16541 0 -7.55105
1 10.7637 18.7336 -5.68513
1 7.76233 18.7353 -5.68105
2 13.8896 20.4691 -5.0879
2 10.8422 20.4617 -4.97617
1 13.9202 20.5161 -3.20323
1 10.8318 20.5069 -3.15588
4 3.0827 0 -7.55105
1 4.60382 18.6523 -5.60628
1 1.52289 18.6913 -5.63915
2 7.72272 20.477 -5.05324
2 4.64267 20.4472 -4.99688
1 7.65808 20.4736 -3.18964
1 4.6246 20.4275 -3.12191
2 1.60465 20.4454 -5.01718
1 1.54625 20.4261 -3.18014
1 16.9595 13.3091 -5.69742
4 12.3308 4.44089e-16 -7.55105
1 13.8818 13.3029 -5.63775
1 10.7964 13.3423 -5.68958
1 12.3722 15.9852 -5.67394
2 15.4306 16.0698 -7.48234
2 16.9545 15.1516 -5.00771
2 13.8367 15.0881 -5.03925
2 15.457 17.802 -5.05444
1 15.3975 15.9969 -5.63729
1 16.9187 15.1231 -3.11735
1 13.821 15.0745 -3.15119
1 15.4207 17.8025 -3.12717
2 16.9017 16.9341 -2.56337
1 16.983 16.9373 -0.526966
2 6.18785 16.0001 -7.60419
1 7.73267 13.4067 -5.67818
1 4.60975 13.3072 -5.70687
1 6.13925 16.0523 -5.72116
4 9.24811 4.44089e-16 -7.55105
2 10.7734 15.1511 -5.07696
2 7.63708 15.1955 -5.00584
2 9.30575 17.7605 -4.97832
1 9.24099 16.0005 -5.68357
1 10.8217 15.1409 -3.10918
1 7.69911 15.1439 -3.09301
1 9.28907 17.7646 -3.10873
2 12.3613 17.7986 -5.01059
2 13.8679 16.9289 -2.46666
2 10.7412 16.8606 -2.52747
2 12.3185 19.619 -2.57407
1 12.3751 17.8126 -3.13533
1 13.8278 16.8719 -0.596643
1 10.7481 16.874 -0.603089
1 12.3609 19.5612 -0.571541
2 15.3939 19.6325 -2.53639
2 16.9328 18.6473 -0.0486803
2 13.9376 18.6164 -0.0924097
1 15.4539 19.5884 -0.583348
4 15.4135 0 -7.55105
1 1.5523 13.373 -5.63151
1 -0.0225544 16.0544 -5.71359
4 3.0827 5.3394 -7.55105
2 4.62023 15.143 -5.0907
2 1.54857 15.1937 -5.04406
2 3.1084 17.7682 -5.05492
1 3.12915 16.033 -5.66452
1 4.65158 15.1807 -3.18792
1 1.55632 15.0993 -3.17123
1 3.11179 17.7513 -3.13466
2 6.22805 17.7684 -5.04089
2 7.73377 16.8536 -2.44518
2 4.66518 16.9562 -2.54958
2 6.09708 19.581 -2.45815
1 6.17581 17.8379 -3.1605
1 7.67382 16.8585 -0.584671
1 4.62863 16.9413 -0.550933
1 6.12314 19.5985 -0.576949
2 9.20616 19.5698 -2.48687
2 10.7487 18.7241 -0.190246
2 7.6447 18.6499 -0.162319
1 9.27215 19.5697 -0.531256
2 -0.0575089 17.8581 -5.06961
2 1.58358 16.8801 -2.52148
2 0.0508999 19.5868 -2.51267
1 -0.0096211 17.7661 -3.19681
1 1.56654 16.8672 -0.631392
1 -0.0341588 19.6026 -0.625046
2 3.06948 19.5605 -2.47585
2 4.60738 18.7403 -0.150362
2 1.51736 18.7252 -0.184274
1 3.04774 19.5899 -0.547667
1 16.9151 7.96607 -5.62762
1 13.8782 8.02114 -5.70391
1 15.4124 10.6915 -5.70707
2 16.9108 9.72774 -4.99565
1 16.9866 9.82688 -3.12521
3 0 3.5596 -8.1803
1 10.7541 7.95897 -5.68451
1 7.73514 8.04052 -5.59895
1 9.23061 10.6599 -5.66761
2 13.9013 9.85538 -4.9817
2 10.7243 9.81333 -5.01172
2 12.3145 12.5096 -5.08614
1 12.3102 10.6821 -5.63039
1 13.8453 9.83722 -3.18657
1 10.8105 9.83934 -3.1874
1 12.3102 12.483 -3.11056
2 15.4079 12.4461 -4.98532
2 16.9631 11.6308 -2.4728
2 13.9194 11.532 -2.50992
2 15.4122 14.1931 -2.54876
1 15.4232 12.4733 -3.09983
1 17.0265 11.5612 -0.617841
1 13.8947 11.5105 -0.679154
1 15.4215 14.2699 -0.588119
2 16.9221 13.3494 -0.150976
1 4.6273 8.00059 -5.70535
1 1.59894 8.02155 -5.69962
1 3.09808 10.6341 -5.62872
2 7.68609 9.82666 -4.97415
2 4.67121 9.80579 -5.06616
2 6.11725 12.4736 -5.05062
1 6.14744 10.6436 -5.68371
1 7.75707 9.82768 -3.14385
1 4.59195 9.79507 -3.15705
1 6.12693 12.4595 -3.16774
2 9.25922 12.4251 -5.06687
2 10.7355 11.6039 -2.47671
2 7.66962 11.5383 -2.49942
2 9.22314 14.2971 -2.54602
1 9.2247 12.4461 -3.13513
1 10.7145 11.5838 -0.56439
1 7.6692 11.5802 -0.60663
1 9.2861 14.1938 -0.582134
2 12.3224 14.2004 -2.5293
2 10.7988 13.3231 -0.035207
2 12.3393 16.0589 -0.0900566
1 12.335 14.2497 -0.577109
2 15.368 16.0719 -0.115608
2 1.60617 9.82071 -5.00771
2 0.0231215 12.5199 -5.04207
1 0.00535404 10.6321 -5.61896
1 1.53627 9.80576 -3.15155
1 0.0415106 12.4912 -3.10452
2 3.07532 12.4317 -5.07262
2 4.59532 11.5467 -2.57649
2 1.51345 11.5093 -2.51805
2 3.15128 14.2587 -2.58473
1 3.0786 12.429 -3.16501
1 4.58193 11.5653 -0.623639
1 1.52242 11.5184 -0.543595
1 3.07892 14.2696 -0.636174
2 6.10752 14.2265 -2.4848
2 7.64766 13.2885 -0.168865
2 4.5928 13.287 -0.156943
2 6.10536 16.0662 -0.125358
1 6.11508 14.2073 -0.514688
2 9.21356 16.0669 -0.071596
2 0.0660162 14.2367 -2.48243
2 1.55982 13.298 -0.0555355
2 0.0382423 16.0708 -0.137279
1 0.0202846 14.2059 -0.586307
2 3.14644 16.0104 -0.142851
1 16.9463 2.68688 -5.71418
4 0 5.3394 -7.55105
1 13.8592 2.65458 -5.60772
1 10.7592 2.62608 -5.68221
1 12.3311 5.3209 -5.69764
2 16.9902 4.47058 -5.03905
2 13.8507 4.45691 -5.05232
2 15.4467 7.17714 -5.05993
1 15.4313 5.37924 -5.68767
1 16.9396 4.42377 -3.17683
1 13.8273 4.48227 -3.0984
1 15.4322 7.15562 -3.10482
2 16.8894 6.22924 -2.54211
1 17.0226 6.23817 -0.656811
1 7.6704 2.66936 -5.68514
1 4.67265 2.72051 -5.64625
1 6.2017 5.31974 -5.66746
4 1.54135 2.6697 -7.55105
2 10.8474 4.45005 -5.07918
2 7.76322 4.40539 -4.9819
2 9.29406 7.0755 -4.99656
1 9.24193 5.33977 -5.69548
1 10.8317 4.4293 -3.10566
1 7.67494 4.46471 -3.12089
1 9.20845 7.08774 -3.09421
2 12.3926 7.05348 -4.99422
2 13.9223 6.25046 -2.47863
2 10.8444 6.19672 -2.48702
2 12.3976 8.91223 -2.55811
1 12.3642 7.15427 -3.09413
1 13.9107 6.19204 -0.576978
1 10.8243 6.23352 -0.53908
1 12.3886 8.93151 -0.54846
2 15.4748 8.95445 -2.55253
2 13.9317 7.98648 -0.0769404
1 15.3973 8.84193 -0.590548
4 0 3.5596 -10.0681
1 1.5536 2.69406 -5.69043
1 -0.0309506 5.36215 -5.67972
4 9.24811 5.3394 -7.55105
2 4.63571 4.51911 -5.03983
2 1.4642 4.46797 -5.00055
2 3.14888 7.13366 -4.9703
1 3.04087 5.35507 -5.64076
1 4.56102 4.44165 -3.0888
1 1.50252 4.44996 -3.13741
1 3.11411 7.11896 -3.10601
2 6.22374 7.09652 -4.96937
2 7.67286 6.21496 -2.49007
2 4.5959 6.18442 -2.53149
2 6.1709 8.84741 -2.53263
1 6.17153 7.06454 -3.09655
1 7.68754 6.2641 -0.628491
1 4.61088 6.24136 -0.644518
1 6.13076 8.84422 -0.584849
2 9.25593 8.90103 -2.58092
2 10.7725 8.07619 -0.161567
2 7.6307 7.96782 -0.160994
2 9.23874 10.6647 -0.136983
1 9.20437 8.94894 -0.622899
2 0.0133339 7.13628 -5.08058
2 1.51136 6.18783 -2.47262
2 -0.0485486 8.94416 -2.44758
1 -0.0343076 7.1529 -3.1771
1 1.50607 6.24746 -0.610853
1 0.0119526 8.88179 -0.59615
2 3.10387 8.93336 -2.47457
2 4.58217 8.0102 -0.218785
2 1.50788 7.96432 -0.0779932
2 3.01942 10.7125 -0.121963
1 3.09444 8.93742 -0.60231
2 6.20434 10.6477 -0.0865001
2 -0.0494327 10.605 -0.077975
1 15.3983 -0.0443746 -5.70199
3 6.16541 3.5596 -8.1803
1 9.20811 0.0378588 -5.66741
2 12.2647 1.73555 -4.98663
1 12.3334 0.0183134 -5.69236
1 12.314 1.81943 -3.18297
2 15.4658 1.80856 -5.08981
2 16.964 0.942405 -2.5542
2 13.8752 0.853833 -2.51729
2 15.4608 3.59341 -2.46354
1 15.4251 1.82162 -3.09663
1 16.939 0.825821 -0.633363
1 13.8719 0.856281 -0.570991
1 15.4417 3.60447 -0.646091
4 6.16541 5.3394 -7.55105
1 3.08049 0.036335 -5.67186
4 4.62405 2.6697 -7.55105
2 6.21922 1.75032 -5.03007
1 6.21626 0.0354786 -5.64701
1 6.13002 1.76521 -3.13069
2 9.26871 1.78175 -5.01542
2 10.7796 0.839509 -2.50623
2 7.69779 0.929853 -2.49516
2 9.21479 3.60984 -2.54955
1 9.21931 1.76246 -3.14541
1 10.8463 0.903701 -0.61475
1 7.70819 0.835262 -0.600897
1 9.30319 3.59114 -0.622752
2 12.3715 3.5789 -2.56983
2 10.8495 2.69859 -0.164301
2 12.4109 5.30633 -0.0870893
1 12.3074 3.56433 -0.644294
4 7.70676 2.6697 -7.55105
2 0.0555393 1.72671 -5.06036
1 0.0119275 -0.0231695 -5.60419
1 0.0131037 1.7483 -3.10269
2 3.06807 1.78512 -5.09513
2 4.60498 0.826973 -2.55184
2 1.57099 0.88925 -2.50307
2 3.00332 3.55224 -2.47289
1 3.03235 1.77449 -3.18788
1 4.66452 0.872079 -0.626667
1 1.53204 0.895138 -0.588805
1 3.07946 3.52866 -0.609857
2 6.15417 3.60792 -2.46119
2 4.70458 2.65076 -0.139393
1 6.15657 3.56827 -0.629039
2 9.19868 5.30665 -0.096653
2 0.0408239 3.48095 -2.47184
2 1.48633 2.66975 -0.182807
2 0.0375181 5.29448 -0.173058
1 -0.014122 3.54423 -0.605222
2 3.0774 5.32294 -0.0918755
2 15.3627 -0.0239762 -0.0591699
2 9.25839 0.0429649 -0.107207
2 12.3786 0.046178 -0.116728
2 3.04702 0.0254479 -0.0811573
2 6.14579 -0.0452624 -0.168136
2 -0.0554722 0.0281557 -0.0698729
3 16.9549 18.6879 -13.2143
3 13.8722 18.6879 -13.2143
4 16.9549 20.4677 -12.5851
3 16.9549 20.4677 -10.6973
3 10.7895 18.6879 -13.2143
3 7.70676 18.6879 -13.2143
4 13.8722 20.4677 -12.5851
4 10.7895 20.4677 -12.5851
3 13.8722 20.4677 -10.6973
3 10.7895 20.4677 -10.6973
3 4.62405 18.6879 -13.2143
3 1.54135 18.6879 -13.2143
4 7.70676 20.4677 -12.5851
4 4.62405 20.4677 -12.5851
3 7.70676 20.4677 -10.6973
3 4.62405 20.4677 -10.6973
4 1.54135 20.4677 -12.5851
3 1.54135 20.4677 -10.6973
3 16.9549 13.3485 -13.2143
3 13.8722 13.3485 -13.2143
3 10.7895 13.3485 -13.2143
3 12.3308 16.0182 -13.2143
4 16.9549 15.1283 -12.5851
4 13.8722 15.1283 -12.5851
4 15.4135 17.798 -12.5851
3 15.4135 16.0182 -13.2143
3 16.9549 15.1283 -10.6973
3 13.8722 15.1283 -10.6973
3 15.4135 17.798 -10.6973
4 16.9549 16.9081 -10.0681
3 16.9549 16.9081 -8.1803
4 7.70676 13.3485 -15.1021
3 7.70676 13.3485 -13.2143
3 4.62405 13.3485 -13.2143
3 6.16541 16.0182 -13.2143
4 10.7895 15.1283 -12.5851
4 7.70676 15.1283 -12.5851
4 9.24811 17.798 -12.5851
3 9.24811 16.0182 -13.2143
3 10.7895 15.1283 -10.6973
3 7.70676 15.1283 -10.6973
3 9.24811 17.798 -10.6973
4 12.3308 17.798 -12.5851
4 13.8722 16.9081 -10.0681
4 10.7895 16.9081 -10.0681
4 12.3308 19.5778 -10.0681
3 12.3308 17.798 -10.6973
3 13.8722 16.9081 -8.1803
3 10.7895 16.9081 -8.1803
3 12.3308 19.5778 -8.1803
4 15.4135 19.5778 -10.0681
4 13.8722 18.6879 -7.55105
3 15.4135 19.5778 -8.1803
4 1.54135 13.3485 -15.1021
3 1.54135 13.3485 -13.2143
3 0 16.0182 -13.2143
4 4.62405 15.1283 -12.5851
4 1.54135 15.1283 -12.5851
4 3.0827 17.798 -12.5851
3 3.0827 16.0182 -13.2143
3 4.62405 15.1283 -10.6973
3 1.54135 15.1283 -10.6973
3 3.0827 17.798 -10.6973
4 6.16541 17.798 -12.5851
4 7.70676 16.9081 -10.0681
4 4.62405 16.9081 -10.0681
4 6.16541 19.5778 -10.0681
3 6.16541 17.798 -10.6973
3 7.70676 16.9081 -8.1803
3 4.62405 16.9081 -8.1803
3 6.16541 19.5778 -8.1803
4 9.24811 19.5778 -10.0681
4 10.7895 18.6879 -7.55105
4 7.70676 18.6879 -7.55105
3 9.24811 19.5778 -8.1803
4 0 17.798 -12.5851
4 1.54135 16.9081 -10.0681
4 0 19.5778 -10.0681
3 0 17.798 -10.6973
3 1.54135 16.9081 -8.1803
3 0 19.5778 -8.1803
4 3.0827 19.5778 -10.0681
4 4.62405 18.6879 -7.55105
4 1.54135 18.6879 -7.55105
3 3.0827 19.5778 -8.1803
3 16.9549 8.0091 -13.2143
3 13.8722 8.0091 -13.2143
3 15.4135 10.6788 -13.2143
4 16.9549 9.7889 -12.5851
3 16.9549 9.7889 -10.6973
4 9.24811 10.6788 -15.1021
3 10.7895 8.0091 -13.2143
3 7.70676 8.0091 -13.2143
3 9.24811 10.6788 -13.2143
4 13.8722 9.7889 -12.5851
4 10.7895 9.7889 -12.5851
4 12.3308 12.4586 -12.5851
3 12.3308 10.6788 -13.2143
3 13.8722 9.7889 -10.6973
3 10.7895 9.7889 -10.6973
3 12.3308 12.4586 -10.6973
4 15.4135 12.4586 -12.5851
4 16.9549 11.5687 -10.0681
4 13.8722 11.5687 -10.0681
4 15.4135 14.2384 -10.0681
3 15.4135 12.4586 -10.6973
3 16.9549 11.5687 -8.1803
3 13.8722 11.5687 -8.1803
3 15.4135 14.2384 -8.1803
4 16.9549 13.3485 -7.55105
4 3.0827 10.6788 -15.1021
3 4.62405 8.0091 -13.2143
3 1.54135 8.0091 -13.2143
3 3.0827 10.6788 -13.2143
4 6.16541 10.6788 -15.1021
4 7.70676 9.7889 -12.5851
4 4.62405 9.7889 -12.5851
4 6.16541 12.4586 -12.5851
3 6.16541 10.6788 -13.2143
3 7.70676 9.7889 -10.6973
3 4.62405 9.7889 -10.6973
3 6.16541 12.4586 -10.6973
4 9.24811 12.4586 -12.5851
4 10.7895 11.5687 -10.0681
4 7.70676 11.5687 -10.0681
4 9.24811 14.2384 -10.0681
3 9.24811 12.4586 -10.6973
3 10.7895 11.5687 -8.1803
3 7.70676 11.5687 -8.1803
3 9.24811 14.2384 -8.1803
4 12.3308 14.2384 -10.0681
4 13.8722 13.3485 -7.55105
4 10.7895 13.3485 -7.55105
4 12.3308 16.0182 -7.55105
3 12.3308 14.2384 -8.1803
4 0 10.6788 -15.1021
4 1.54135 9.7889 -12.5851
4 0 12.4586 -12.5851
3 0 10.6788 -13.2143
3 1.54135 9.7889 -10.6973
3 0 12.4586 -10.6973
4 3.0827 12.4586 -12.5851
4 4.62405 11.5687 -10.0681
4 1.54135 11.5687 -10.0681
4 3.0827 14.2384 -10.0681
3 3.0827 12.4586 -10.6973
3 4.62405 11.5687 -8.1803
3 1.54135 11.5687 -8.1803
3 3.0827 14.2384 -8.1803
4 6.16541 14.2384 -10.0681
4 7.70676 13.3485 -7.55105
4 4.62405 13.3485 -7.55105
3 6.16541 14.2384 -8.1803
4 9.24811 16.0182 -7.55105
4 0 14.2384 -10.0681
4 1.54135 13.3485 -7.55105
4 0 16.0182 -7.55105
3 0 14.2384 -8.1803
4 3.0827 16.0182 -7.55105
3 16.9549 2.6697 -13.2143
4 13.8722 2.6697 -15.1021
3 13.8722 2.6697 -13.2143
3 10.7895 2.6697 -13.2143
3 12.3308 5.3394 -13.2143
4 16.9549 4.4495 -12.5851
4 13.8722 4.4495 -12.5851
4 15.4135 7.1192 -12.5851
3 15.4135 5.3394 -13.2143
3 16.9549 4.4495 -10.6973
3 13.8722 4.4495 -10.6973
3 15.4135 7.1192 -10.6973
4 16.9549 6.2293 -10.0681
3 16.9549 6.2293 -8.1803
3 7.70676 2.6697 -13.2143
3 4.62405 2.6697 -13.2143
3 6.16541 5.3394 -13.2143
4 10.7895 4.4495 -12.5851
4 7.70676 4.4495 -12.5851
4 9.24811 7.1192 -12.5851
3 9.24811 5.3394 -13.2143
3 10.7895 4.4495 -10.6973
3 7.70676 4.4495 -10.6973
3 9.24811 7.1192 -10.6973
4 12.3308 7.1192 -12.5851
4 13.8722 6.2293 -10.0681
4 10.7895 6.2293 -10.0681
4 12.3308 8.899 -10.0681
3 12.3308 7.1192 -10.6973
3 13.8722 6.2293 -8.1803
3 10.7895 6.2293 -8.1803
3 12.3308 8.899 -8.1803
4 15.4135 8.899 -10.0681
4 16.9549 8.0091 -7.55105
4 13.8722 8.0091 -7.55105
4 15.4135 10.6788 -7.55105
3 15.4135 8.899 -8.1803
3 1.54135 2.6697 -13.2143
3 0 5.3394 -13.2143
4 4.62405 4.4495 -12.5851
4 1.54135 4.4495 -12.5851
4 3.0827 7.1192 -12.5851
3 3.0827 5.3394 -13.2143
3 4.62405 4.4495 -10.6973
3 1.54135 4.4495 -10.6973
3 3.0827 7.1192 -10.6973
4 6.16541 7.1192 -12.5851
4 7.70676 6.2293 -10.0681
4 4.62405 6.2293 -10.0681
4 6.16541 8.899 -10.0681
3 6.16541 7.1192 -10.6973
3 7.70676 6.2293 -8.1803
3 4.62405 6.2293 -8.1803
3 6.16541 8.899 -8.1803
4 9.24811 8.899 -10.0681
4 10.7895 8.0091 -7.55105
4 7.70676 8.0091 -7.55105
4 9.24811 10.6788 -7.55105
3 9.24811 8.899 -8.1803
4 12.3308 10.6788 -7.55105
4 0 7.1192 -12.5851
4 1.54135 6.2293 -10.0681
4 0 8.899 -10.0681
3 0 7.1192 -10.6973
3 1.54135 6.2293 -8.1803
3 0 8.899 -8.1803
4 3.0827 8.899 -10.0681
4 4.62405 8.0091 -7.55105
4 1.54135 8.0091 -7.55105
4 3.0827 10.6788 -7.55105
3 3.0827 8.899 -8.1803
4 6.16541 10.6788 -7.55105
4 0 10.6788 -7.55105
4 15.4135 8.88178e-16 -15.1021
3 15.4135 0 -13.2143
3 9.24811 0 -13.2143
4 12.3308 0 -15.1021
4 12.3308 1.7798 -12.5851
3 12.3308 0 -13.2143
3 12.3308 1.7798 -10.6973
4 15.4135 1.7798 -12.5851
4 16.9549 0.8899 -10.0681
4 13.8722 0.8899 -10.0681
4 15.4135 3.5596 -10.0681
3 15.4135 1.7798 -10.6973
3 16.9549 0.8899 -8.1803
3 13.8722 0.8899 -8.1803
3 15.4135 3.5596 -8.1803
4 16.9549 2.6697 -7.55105
4 3.0827 8.88178e-16 -15.1021
3 3.0827 8.88178e-16 -13.2143
4 6.16541 0 -15.1021
4 6.16541 1.7798 -12.5851
3 6.16541 0 -13.2143
3 6.16541 1.7798 -10.6973
4 9.24811 1.7798 -12.5851
4 10.7895 0.8899 -10.0681
4 7.70676 0.8899 -10.0681
4 9.24811 3.5596 -10.0681
3 9.24811 1.7798 -10.6973
3 10.7895 0.8899 -8.1803
3 7.70676 0.8899 -8.1803
3 9.24811 3.5596 -8.1803
4 12.3308 3.5596 -10.0681
4 13.8722 2.6697 -7.55105
4 10.7895 2.6697 -7.55105
4 12.3308 5.3394 -7.55105
3 12.3308 3.5596 -8.1803
4 15.4135 5.3394 -7.55105
4 0 0 -15.1021
4 0 1.7798 -12.5851
3 0 0 -13.2143
3 0 1.7798 -10.6973
4 3.0827 1.7798 -12.5851
4 4.62405 0.8899 -10.0681
4 1.54135 0.8899 -10.0681
4 3.0827 3.5596 -10.0681
3 3.0827 1.7798 -10.6973
3 4.62405 0.8899 -8.1803
3 1.54135 0.8899 -8.1803