579
Atoms. Timestep: 0
3 1.54135 2.6697 -13.2143
4 3.08271 8.88179e-16 -15.1021
3 3.08271 8.88179e-16 -13.2143
4 0 0 -15.1021
4 0 1.7798 -12.5851
3 0 0 -13.2143
4 3.08271 1.7798 -12.5851
3 7.70676 2.6697 -13.2143
3 4.62405 2.6697 -13.2143
4 6.1654 0 -15.1021
4 6.1654 1.7798 -12.5851
3 6.1654 0 -13.2143
3 10.7895 2.6697 -13.2143
3 9.24811 0 -13.2143
4 12.3308 0 -15.1021
4 12.3308 1.7798 -12.5851
3 12.3308 0 -13.2143
4 9.24811 1.7798 -12.5851
3 16.9549 2.6697 -13.2143
4 13.8722 2.6697 -15.1021
3 13.8722 2.6697 -13.2143
4 15.4135 8.88179e-16 -15.1021
3 15.4135 0 -13.2143
4 15.4135 1.7798 -12.5851
3 1.54135 8.0091 -13.2143
3 0 5.3394 -13.2143
4 1.54135 4.44949 -12.5851
4 3.08271 7.11919 -12.5851
3 3.08271 5.3394 -13.2143
4 0 7.11919 -12.5851
3 7.70676 8.0091 -13.2143
3 4.62405 8.0091 -13.2143
3 6.1654 5.3394 -13.2143
4 7.70676 4.44949 -12.5851
4 4.62405 4.44949 -12.5851
4 6.1654 7.11919 -12.5851
3 10.7895 8.0091 -13.2143
3 12.3308 5.3394 -13.2143
4 10.7895 4.44949 -12.5851
4 9.24811 7.11919 -12.5851
3 9.24811 5.3394 -13.2143
4 12.3308 7.11919 -12.5851
3 16.9549 8.0091 -13.2143
3 13.8722 8.0091 -13.2143
4 16.9549 4.44949 -12.5851
4 13.8722 4.44949 -12.5851
4 15.4135 7.11919 -12.5851
3 15.4135 5.3394 -13.2143
4 3.08271 10.6788 -15.1021
3 3.08271 10.6788 -13.2143
4 0 10.6788 -15.1021
4 1.54135 9.78889 -12.5851
4 0 12.4586 -12.5851
3 0 10.6788 -13.2143
4 3.08271 12.4586 -12.5851
4 6.1654 10.6788 -15.1021
4 7.70676 9.78889 -12.5851
4 4.62405 9.78889 -12.5851
4 6.1654 12.4586 -12.5851
3 6.1654 10.6788 -13.2143
4 9.24811 10.6788 -15.1021
3 9.24811 10.6788 -13.2143
4 10.7895 9.78889 -12.5851
4 12.3308 12.4586 -12.5851
3 12.3308 10.6788 -13.2143
4 9.24811 12.4586 -12.5851
3 15.4135 10.6788 -13.2143
4 16.9549 9.78889 -12.5851
4 13.8722 9.78889 -12.5851
4 15.4135 12.4586 -12.5851
4 1.54135 13.3485 -15.1021
3 1.54135 13.3485 -13.2143
3 0 16.0182 -13.2143
4 1.54135 15.1283 -12.5851
3 3.08271 16.0182 -13.2143
4 7.70676 13.3485 -15.1021
3 7.70676 13.3485 -13.2143
3 4.62405 13.3485 -13.2143
3 6.1654 16.0182 -13.2143
4 7.70676 15.1283 -12.5851
4 4.62405 15.1283 -12.5851
3 10.7895 13.3485 -13.2143
3 12.3308 16.0182 -13.2143
4 10.7895 15.1283 -12.5851
3 9.24811 16.0182 -13.2143
3 16.9549 13.3485 -13.2143
3 13.8722 13.3485 -13.2143
4 16.9549 15.1283 -12.5851
4 13.8722 15.1283 -12.5851
3 15.4135 16.0182 -13.2143
3 1.54135 18.6879 -13.2143
4 1.54135 20.4677 -12.5851
4 3.08271 17.798 -12.5851
4 0 17.798 -12.5851
3 7.70676 18.6879 -13.2143
3 4.62405 18.6879 -13.2143
4 7.70676 20.4677 -12.5851
4 4.62405 20.4677 -12.5851
4 6.1654 17.798 -12.5851
3 10.7895 18.6879 -13.2143
4 10.7895 20.4677 -12.5851
4 9.24811 17.798 -12.5851
4 12.3308 17.798 -12.5851
3 16.9549 18.6879 -13.2143
3 13.8722 18.6879 -13.2143
4 16.9549 20.4677 -12.5851
4 13.8722 20.4677 -12.5851
4 15.4135 17.798 -12.5851
4 0 0 -7.55105
4 3.08271 0 -7.55105
3 0 3.55961 -8.18029
4 1.54135 2.6697 -7.55105
4 0 3.55961 -10.0681
3 0 1.7798 -10.6973
4 1.54135 0.8899 -10.0681
4 3.08271 3.55961 -10.0681
3 3.08271 1.7798 -10.6973
3 1.54135 0.8899 -8.18029
3 3.08271 3.55961 -8.18029
4 6.1654 0 -7.55105
3 6.1654 3.55961 -8.18029
4 4.62405 2.6697 -7.55105
4 7.70676 2.6697 -7.55105
3 6.1654 1.7798 -10.6973
4 7.70676 0.8899 -10.0681
3 7.70676 0.8899 -8.18029
4 4.62405 0.8899 -10.0681
3 4.62405 0.8899 -8.18029
4 6.1654 3.55961 -10.0681
4 12.3308 4.44088e-16 -7.55105
4 9.24811 4.44088e-16 -7.55105
3 12.3308 1.7798 -10.6973
4 10.7895 0.8899 -10.0681
4 9.24811 3.55961 -10.0681
3 9.24811 1.7798 -10.6973
3 10.7895 0.8899 -8.18029
3 9.24811 3.55961 -8.18029
4 12.3308 3.55961 -10.0681
4 10.7895 2.6697 -7.55105
3 12.3308 3.55961 -8.18029
4 15.4135 0 -7.55105
4 16.9549 0.8899 -10.0681
4 13.8722 0.8899 -10.0681
4 15.4135 3.55961 -10.0681
3 15.4135 1.7798 -10.6973
3 16.9549 0.8899 -8.18029
3 13.8722 0.8899 -8.18029
3 15.4135 3.55961 -8.18029
4 16.9549 2.6697 -7.55105
4 13.8722 2.6697 -7.55105
4 3.08271 5.3394 -7.55105
4 0 5.3394 -7.55105
3 1.54135 4.44949 -10.6973
3 3.08271 7.11919 -10.6973
4 1.54135 6.2293 -10.0681
3 0 7.11919 -10.6973
3 1.54135 6.2293 -8.18029
4 1.54135 8.0091 -7.55105
4 6.1654 5.3394 -7.55105
3 7.70676 4.44949 -10.6973
3 4.62405 4.44949 -10.6973
4 7.70676 6.2293 -10.0681
4 4.62405 6.2293 -10.0681
3 6.1654 7.11919 -10.6973
3 7.70676 6.2293 -8.18029
3 4.62405 6.2293 -8.18029
4 7.70676 8.0091 -7.55105
4 4.62405 8.0091 -7.55105
4 9.24811 5.3394 -7.55105
3 10.7895 4.44949 -10.6973
3 9.24811 7.11919 -10.6973
4 10.7895 6.2293 -10.0681
3 12.3308 7.11919 -10.6973
3 10.7895 6.2293 -8.18029
4 10.7895 8.0091 -7.55105
4 12.3308 5.3394 -7.55105
3 16.9549 4.44949 -10.6973
3 13.8722 4.44949 -10.6973
3 15.4135 7.11919 -10.6973
4 16.9549 6.2293 -10.0681
3 16.9549 6.2293 -8.18029
4 13.8722 6.2293 -10.0681
3 13.8722 6.2293 -8.18029
4 16.9549 8.0091 -7.55105
4 13.8722 8.0091 -7.55105
4 15.4135 5.3394 -7.55105
3 1.54135 9.78889 -10.6973
3 0 12.4586 -10.6973
4 1.54135 11.5687 -10.0681
3 3.08271 12.4586 -10.6973
3 1.54135 11.5687 -8.18029
4 0 8.899 -10.0681
3 0 8.899 -8.18029
4 3.08271 8.899 -10.0681
4 3.08271 10.6788 -7.55105
3 3.08271 8.899 -8.18029
4 0 10.6788 -7.55105
3 7.70676 9.78889 -10.6973
3 4.62405 9.78889 -10.6973
3 6.1654 12.4586 -10.6973
4 7.70676 11.5687 -10.0681
3 7.70676 11.5687 -8.18029
4 4.62405 11.5687 -10.0681
3 4.62405 11.5687 -8.18029
4 6.1654 8.899 -10.0681
3 6.1654 8.899 -8.18029
4 6.1654 10.6788 -7.55105
3 10.7895 9.78889 -10.6973
3 12.3308 12.4586 -10.6973
4 10.7895 11.5687 -10.0681
3 9.24811 12.4586 -10.6973
3 10.7895 11.5687 -8.18029
4 12.3308 8.899 -10.0681
3 12.3308 8.899 -8.18029
4 9.24811 8.899 -10.0681
4 9.24811 10.6788 -7.55105
3 9.24811 8.899 -8.18029
4 12.3308 10.6788 -7.55105
3 16.9549 9.78889 -10.6973
3 13.8722 9.78889 -10.6973
4 16.9549 11.5687 -10.0681
4 13.8722 11.5687 -10.0681
3 15.4135 12.4586 -10.6973
3 16.9549 11.5687 -8.18029
3 13.8722 11.5687 -8.18029
4 15.4135 8.899 -10.0681
4 15.4135 10.6788 -7.55105
3 15.4135 8.899 -8.18029
3 1.54135 15.1283 -10.6973
4 1.54135 16.9081 -10.0681
3 1.54135 16.9081 -8.18029
4 3.08271 14.2384 -10.0681
3 3.08271 14.2384 -8.18029
4 0 14.2384 -10.0681
4 1.54135 13.3485 -7.55105
4 0 16.0182 -7.55105
3 0 14.2384 -8.18029
4 3.08271 16.0182 -7.55105
2 6.17287 16.0026 -7.612
3 7.70676 15.1283 -10.6973
3 4.62405 15.1283 -10.6973
4 7.70676 16.9081 -10.0681
4 4.62405 16.9081 -10.0681
3 7.70676 16.9081 -8.18029
3 4.62405 16.9081 -8.18029
4 6.1654 14.2384 -10.0681
4 7.70676 13.3485 -7.55105
4 4.62405 13.3485 -7.55105
3 6.1654 14.2384 -8.18029
3 10.7895 15.1283 -10.6973
4 10.7895 16.9081 -10.0681
3 10.7895 16.9081 -8.18029
4 9.24811 14.2384 -10.0681
3 9.24811 14.2384 -8.18029
4 12.3308 14.2384 -10.0681
4 10.7895 13.3485 -7.55105
4 12.3308 16.0182 -7.55105
3 12.3308 14.2384 -8.18029
4 9.24811 16.0182 -7.55105
2 15.394 16.046 -7.62807
3 16.9549 15.1283 -10.6973
3 13.8722 15.1283 -10.6973
4 16.9549 16.9081 -10.0681
3 16.9549 16.9081 -8.18029
4 13.8722 16.9081 -10.0681
3 13.8722 16.9081 -8.18029
4 15.4135 14.2384 -10.0681
3 15.4135 14.2384 -8.18029
4 16.9549 13.3485 -7.55105
4 13.8722 13.3485 -7.55105
3 1.54135 20.4677 -10.6973
3 3.08271 17.798 -10.6973
4 0 19.5778 -10.0681
3 0 17.798 -10.6973
3 0 19.5778 -8.18029
4 3.08271 19.5778 -10.0681
4 1.54135 18.6879 -7.55105
3 3.08271 19.5778 -8.18029
3 7.70676 20.4677 -10.6973
3 4.62405 20.4677 -10.6973
4 6.1654 19.5778 -10.0681
3 6.1654 17.798 -10.6973
3 6.1654 19.5778 -8.18029
4 7.70676 18.6879 -7.55105
4 4.62405 18.6879 -7.55105
3 10.7895 20.4677 -10.6973
3 9.24811 17.798 -10.6973
4 12.3308 19.5778 -10.0681
3 12.3308 17.798 -10.6973
3 12.3308 19.5778 -8.18029
4 9.24811 19.5778 -10.0681
4 10.7895 18.6879 -7.55105
3 9.24811 19.5778 -8.18029
2 16.9833 18.685 -7.5631
3 16.9549 20.4677 -10.6973
3 13.8722 20.4677 -10.6973
3 15.4135 17.798 -10.6973
4 15.4135 19.5778 -10.0681
4 13.8722 18.6879 -7.55105
3 15.4135 19.5778 -8.18029
1 1.52893 2.67959 -5.66027
1 3.11271 0.0819598 -5.69784
2 18.4516 1.86243 -5.06999
1 0.000881265 0.0218524 -5.65607
1 0.00695952 1.82376 -3.19095
2 3.02663 1.79252 -5.07714
2 1.43896 0.848255 -2.55422
2 3.05576 3.52509 -2.58288
1 3.03018 1.71817 -3.1606
2 18.4142 3.58989 -2.53138
1 7.65257 2.69825 -5.64208
1 4.53536 2.7008 -5.68851
2 6.12129 1.85222 -4.96856
1 6.17685 0.0583385 -5.66673
1 6.17086 1.86568 -3.14477
2 7.75045 1.03798 -2.45219
2 4.60892 0.905237 -2.53184
2 6.20086 3.67054 -2.53939
1 10.7066 2.73411 -5.66477
1 9.27583 21.348 -5.69766
2 12.2957 1.8015 -5.10433
1 12.2739 0.0180846 -5.68195
1 12.3405 1.795 -3.1709
2 9.12392 1.72515 -5.08533
2 10.7594 0.886195 -2.54818
2 9.24787 3.61687 -2.56992
1 9.25049 1.84028 -3.17911
2 12.3386 3.5504 -2.54241
1 16.9537 2.65684 -5.71847
1 13.8532 2.63764 -5.73608
1 15.4386 21.308 -5.6496
2 15.4333 1.72566 -5.11508
2 16.8973 1.01785 -2.53933
2 13.8973 0.921892 -2.58252
2 15.2639 3.50794 -2.52268
1 15.3719 1.83646 -3.24976
1 1.47948 8.02155 -5.6834
1 18.4888 5.34529 -5.6767
2 1.5203 4.43441 -5.03123
2 3.00619 7.20257 -5.04733
1 3.08987 5.36607 -5.61723
1 1.48158 4.45071 -3.19077
1 3.06505 7.15855 -3.20521
2 18.461 7.12376 -5.0663
2 1.51532 6.16213 -2.57225
1 0.00777444 7.06137 -3.22795
1 7.68634 8.05403 -5.65383
1 4.61634 8.04936 -5.70874
1 6.1885 5.37126 -5.71098
2 7.69193 4.44883 -5.01257
1 7.76186 4.47232 -3.18098
2 4.63334 4.52206 -5.08146
1 4.58207 4.40052 -3.19201
2 6.11982 7.15776 -5.0724
2 7.72237 6.19588 -2.60665
2 4.51502 6.19058 -2.57155
1 6.07682 7.08784 -3.15549
1 10.7258 8.03936 -5.64387
1 12.2797 5.29816 -5.64362
2 10.6751 4.50998 -5.06869
2 9.27326 7.08124 -4.98871
1 9.20557 5.33972 -5.66057
1 10.7932 4.49118 -3.08382
1 9.25451 7.13461 -3.11417
2 12.3447 7.05091 -4.97602
2 10.7985 6.24771 -2.52302
1 12.3137 7.1194 -3.09218
1 16.9216 8.05352 -5.71847
1 13.8595 7.97247 -5.67951
2 17 4.40455 -4.99834
2 13.8896 4.4481 -5.08367
2 15.4441 7.11097 -5.14374
1 15.4187 5.36725 -5.68697
1 16.8751 4.42288 -3.11448
1 13.8182 4.4346 -3.19711
1 15.4281 7.18123 -3.24402
2 16.8779 6.26971 -2.53295
2 13.9337 6.31031 -2.52033
1 3.01671 10.6397 -5.63199
2 1.48863 9.78338 -5.15876
2 0.00896212 12.5456 -4.97617
1 18.4458 10.6766 -5.71074
1 1.523 9.74361 -3.16398
1 0.00214839 12.4807 -3.11756
2 3.04881 12.4835 -5.10412
2 1.50192 11.5282 -2.51459
1 3.05739 12.4245 -3.10795
2 18.4301 8.82218 -2.52214
2 3.12821 8.90586 -2.6059
2 7.69936 9.77659 -5.02842
2 4.65541 9.78507 -5.03516
2 6.15082 12.4167 -5.01314
1 6.11178 10.6586 -5.70056
1 7.62124 9.81343 -3.17485
1 4.62463 9.81356 -3.18056
1 6.1179 12.4919 -3.16981
2 7.65235 11.5487 -2.48324
2 4.60637 11.5875 -2.51024
2 6.10789 8.89001 -2.56174
1 9.20592 10.6988 -5.69878
2 10.7252 9.84115 -5.04733
2 12.3037 12.4795 -5.06431
1 12.2763 10.7256 -5.64951
1 10.7463 9.7862 -3.13779
1 12.3456 12.5051 -3.20772
2 9.17544 12.5322 -5.0148
2 10.739 11.5605 -2.59792
1 9.17828 12.4658 -3.15054
2 12.2762 8.93582 -2.50927
2 9.247 8.864 -2.4302
1 15.4233 10.6618 -5.69784
2 16.9114 9.82233 -5.04537
1 16.9564 9.84102 -3.16322
2 13.7864 9.81347 -5.03157
1 13.773 9.87274 -3.14779
2 15.3865 12.4517 -5.0557
2 16.8456 11.5848 -2.41712
2 13.7798 11.6631 -2.46385
1 15.3676 12.4364 -3.12994
2 15.4437 9.04928 -2.44651
1 1.50078 13.3986 -5.67374
1 18.4486 16.0654 -5.71391
2 1.49065 15.206 -4.95757
1 3.07594 15.9702 -5.65084
1 1.55392 15.1327 -3.09345
2 1.5148 16.9456 -2.49272
2 3.13113 14.2553 -2.5978
2 18.486 14.2151 -2.52516
1 7.69988 13.3613 -5.65175
1 4.6415 13.3239 -5.64051
1 6.2047 16.0285 -5.68959
2 7.70902 15.1271 -4.99312
1 7.68398 15.1677 -3.09342
2 4.70612 15.1606 -5.03084
1 4.63976 15.1445 -3.17355
2 7.7339 16.9478 -2.47696
2 4.73215 16.9538 -2.55117
2 6.18891 14.2809 -2.59095
1 10.7653 13.3822 -5.60481
1 12.374 16.0055 -5.70491
2 10.7953 15.1219 -5.05935
1 9.24406 16.008 -5.60294
1 10.8017 15.0954 -3.18271
2 10.7946 16.9323 -2.56219
2 9.24389 14.2122 -2.57899
2 12.3622 14.2302 -2.51245
1 16.9483 13.3176 -5.67253
1 13.8839 13.3726 -5.75124
2 16.9134 15.1152 -5.05262
2 13.7717 15.0533 -5.12568
1 15.351 15.9927 -5.70307
1 16.9397 15.1497 -3.16573
1 13.8436 15.0905 -3.23143
2 16.9314 16.9148 -2.5434
2 13.8744 16.8478 -2.6361
2 15.3709 14.2059 -2.58318
1 1.50957 18.7237 -5.62704
2 1.63337 20.4991 -5.07195
1 1.51692 20.4836 -3.1023
2 3.07988 17.7233 -5.01529
1 3.0843 17.8153 -3.11846
2 18.4521 17.7733 -5.01906
2 18.3938 19.5836 -2.50296
1 18.4743 17.8417 -3.16914
2 3.11702 19.5677 -2.45321
1 7.75478 18.7527 -5.71355
1 4.61934 18.7752 -5.72116
2 7.77888 20.5831 -5.00157
2 4.60922 20.5771 -5.04274
1 7.7442 20.5121 -3.18905
1 4.65132 20.5262 -3.14652
2 6.22498 17.8443 -5.14731
2 6.18935 19.605 -2.64676
1 6.20524 17.8521 -3.29196
1 10.8145 18.6592 -5.63903
2 10.8409 20.45 -5.07766
1 10.8082 20.4938 -3.14142
2 9.24274 17.7888 -5.01604
1 9.24221 17.9283 -3.18171
2 12.3482 17.7945 -5.02713
2 12.3629 19.642 -2.44011
1 12.3607 17.7826 -3.12532
2 9.19795 19.728 -2.51136
1 16.9374 18.7208 -5.68322
1 13.7994 18.7451 -5.67766
2 16.9792 20.5036 -5.03057
1 16.8799 20.5778 -3.13396
2 13.8671 20.4981 -4.97756
1 13.882 20.4883 -3.13504
2 15.2998 17.7742 -5.1326
1 15.378 17.7312 -3.21699
2 15.4843 19.5827 -2.56458
1 1.50413 0.922706 -0.667905
1 2.9987 3.5145 -0.678507
2 1.45364 2.6574 -0.371663
1 18.3 3.43086 -0.640601
2 3.11245 0.0891421 -0.391718
2 18.4479 0.105278 -0.511266
1 7.74081 1.19678 -0.506101
1 4.65082 0.973124 -0.642926
2 4.58209 2.78832 -0.319742
1 6.05923 3.97529 -0.629908
2 6.22867 0.11725 -0.421167
1 10.8997 0.94407 -0.659207
1 9.23522 3.47403 -0.590492
2 10.9098 2.65206 -0.44083
1 12.4838 3.66603 -0.629244
2 9.2709 0.0937829 -0.154736
2 12.4283 0.0767498 -0.354265
1 16.9553 1.19333 -0.56799
1 13.8919 0.905481 -0.683672
1 15.0453 3.20317 -0.555304
2 15.4298 0.0729789 -0.499728
1 1.39457 6.11615 -0.610004
2 1.39834 7.915 -0.307962
2 18.2999 5.26736 -0.347137
2 2.9674 5.28652 -0.202338
1 7.63056 6.0986 -0.619941
1 4.56352 6.09358 -0.527124
2 7.66383 7.95199 -0.355564
2 4.61383 7.92676 -0.367736
1 10.8323 6.30013 -0.638124
2 10.8728 8.07229 -0.188806
2 12.4619 5.38122 -0.429624
2 9.34216 5.32191 -0.283164
1 16.7717 6.42564 -0.596261
1 14.1433 6.33451 -0.586807
2 14.0461 8.13229 -0.272804
1 1.51909 11.5227 -0.658995
1 18.1749 8.74884 -0.512535
2 3.01168 10.5753 -0.413465
1 3.05291 8.76272 -0.669808
2 18.4321 10.6585 -0.323729
1 7.6974 11.554 -0.601607
1 4.60339 11.5599 -0.632838
1 6.13053 8.84644 -0.601335
2 6.14346 10.6374 -0.476864
1 10.873 11.6053 -0.725988
1 12.4803 9.02608 -0.504168
2 9.28259 10.7194 -0.385587
1 9.24295 8.88879 -0.517217
1 16.8265 11.4675 -0.524345
1 13.3093 11.55 -0.557086
1 15.6327 9.17699 -0.531292
1 1.54299 16.9685 -0.547119
1 3.13831 14.2515 -0.730609
2 1.52104 13.3244 -0.440951
2 18.4708 16.0702 -0.210342
1 18.3984 14.2702 -0.575299
2 3.15505 16.0091 -0.486016
1 7.73567 16.921 -0.623566
1 4.72244 16.9466 -0.723239
2 7.70536 13.4229 -0.32542
2 4.63264 13.3798 -0.393289
2 6.18456 16.0157 -0.268757
1 6.16002 14.2582 -0.691676
1 10.7518 16.8651 -0.579679
1 9.26986 14.2904 -0.66857
2 10.8279 13.3697 -0.379032
2 12.365 16.0319 -0.322339
1 12.5564 14.1882 -0.537091
2 9.23745 15.9826 -0.318231
1 16.9178 16.8601 -0.676423
1 13.8898 16.8978 -0.674097
1 15.2457 14.2253 -0.66709
2 16.757 13.3105 -0.318564
2 15.3919 15.9781 -0.425819
1 18.4547 19.6359 -0.673644
2 1.49126 18.8138 -0.346925
1 3.14687 19.6763 -0.58868
1 6.28788 19.6376 -0.672859
2 7.77485 18.7126 -0.328138
2 4.6746 18.7161 -0.409931
1 12.4308 19.6124 -0.5592
2 10.7736 18.7453 -0.295427
1 9.26422 19.6745 -0.517337
2 16.9686 18.6474 -0.341187
2 13.9802 18.6589 -0.32098
1 15.441 19.5262 -0.706808
579
Atoms. Timestep: 100
3 1.54135 2.6697 -13.2143
4 3.08271 8.88179e-16 -15.1021
3 3.08271 8.88179e-16 -13.2143
4 0 0 -15.1021
4 0 1.7798 -12.5851
3 0 0 -13.2143
4 3.08271 1.7798 -12.5851
3 7.70676 2.6697 -13.2143
3 4.62405 2.6697 -13.2143
4 6.1654 0 -15.1021
4 6.1654 1.7798 -12.5851
3 6.1654 0 -13.2143
3 10.7895 2.6697 -13.2143
3 9.24811 0 -13.2143
4 12.3308 0 -15.1021
4 12.3308 1.7798 -12.5851
3 12.3308 0 -13.2143
4 9.24811 1.7798 -12.5851
3 16.9549 2.6697 -13.2143
4 13.8722 2.6697 -15.1021
3 13.8722 2.6697 -13.2143
4 15.4135 8.88179e-16 -15.1021
3 15.4135 0 -13.2143
4 15.4135 1.7798 -12.5851
3 1.54135 8.0091 -13.2143
3 0 5.3394 -13.2143
4 1.54135 4.44949 -12.5851
4 3.08271 7.11919 -12.5851
3 3.08271 5.3394 -13.2143
4 0 7.11919 -12.5851
3 7.70676 8.0091 -13.2143
3 4.62405 8.0091 -13.2143
3 6.1654 5.3394 -13.2143
4 7.70676 4.44949 -12.5851
4 4.62405 4.44949 -12.5851
4 6.1654 7.11919 -12.5851
3 10.7895 8.0091 -13.2143
3 12.3308 5.3394 -13.2143
4 10.7895 4.44949 -12.5851
4 9.24811 7.11919 -12.5851
3 9.24811 5.3394 -13.2143
4 12.3308 7.11919 -12.5851
3 16.9549 8.0091 -13.2143
3 13.8722 8.0091 -13.2143
4 16.9549 4.44949 -12.5851
4 13.8722 4.44949 -12.5851
4 15.4135 7.11919 -12.5851
3 15.4135 5.3394 -13.2143
4 3.08271 10.6788 -15.1021
3 3.08271 10.6788 -13.2143
4 0 10.6788 -15.1021
4 1.54135 9.78889 -12.5851
4 0 12.4586 -12.5851
3 0 10.6788 -13.2143
4 3.08271 12.4586 -12.5851
4 6.1654 10.6788 -15.1021
4 7.70676 9.78889 -12.5851
4 4.62405 9.78889 -12.5851
4 6.1654 12.4586 -12.5851
3 6.1654 10.6788 -13.2143
4 9.24811 10.6788 -15.1021
3 9.24811 10.6788 -13.2143
4 10.7895 9.78889 -12.5851
4 12.3308 12.4586 -12.5851
3 12.3308 10.6788 -13.2143
4 9.24811 12.4586 -12.5851
3 15.4135 10.6788 -13.2143
4 16.9549 9.78889 -12.5851
4 13.8722 9.78889 -12.5851
4 15.4135 12.4586 -12.5851
4 1.54135 13.3485 -15.1021
3 1.54135 13.3485 -13.2143
3 0 16.0182 -13.2143
4 1.54135 15.1283 -12.5851
3 3.08271 16.0182 -13.2143
4 7.70676 13.3485 -15.1021
3 7.70676 13.3485 -13.2143
3 4.62405 13.3485 -13.2143
3 6.1654 16.0182 -13.2143
4 7.70676 15.1283 -12.5851
4 4.62405 15.1283 -12.5851
3 10.7895 13.3485 -13.2143
3 12.3308 16.0182 -13.2143
4 10.7895 15.1283 -12.5851
3 9.24811 16.0182 -13.2143
3 16.9549 13.3485 -13.2143
3 13.8722 13.3485 -13.2143
4 16.9549 15.1283 -12.5851
4 13.8722 15.1283 -12.5851
3 15.4135 16.0182 -13.2143
3 1.54135 18.6879 -13.2143
4 1.54135 20.4677 -12.5851
4 3.08271 17.798 -12.5851
4 0 17.798 -12.5851
3 7.70676 18.6879 -13.2143
3 4.62405 18.6879 -13.2143
4 7.70676 20.4677 -12.5851
4 4.62405 20.4677 -12.5851
4 6.1654 17.798 -12.5851
3 10.7895 18.6879 -13.2143
4 10.7895 20.4677 -12.5851
4 9.24811 17.798 -12.5851
4 12.3308 17.798 -12.5851
3 16.9549 18.6879 -13.2143
3 13.8722 18.6879 -13.2143
4 16.9549 20.4677 -12.5851
4 13.8722 20.4677 -12.5851
4 15.4135 17.798 -12.5851
4 0 0 -7.55105
4 3.08271 0 -7.55105
3 0 3.55961 -8.18029
4 1.54135 2.6697 -7.55105
4 0 3.55961 -10.0681
3 0 1.7798 -10.6973
4 1.54135 0.8899 -10.0681
4 3.08271 3.55961 -10.0681
3 3.08271 1.7798 -10.6973
3 1.54135 0.8899 -8.18029
3 3.08271 3.55961 -8.18029
4 6.1654 0 -7.55105
3 6.1654 3.55961 -8.18029
4 4.62405 2.6697 -7.55105
4 7.70676 2.6697 -7.55105
3 6.1654 1.7798 -10.6973
4 7.70676 0.8899 -10.0681
3 7.70676 0.8899 -8.18029
4 4.62405 0.8899 -10.0681
3 4.62405 0.8899 -8.18029
4 6.1654 3.55961 -10.0681
4 12.3308 4.44088e-16 -7.55105
4 9.24811 4.44088e-16 -7.55105
3 12.3308 1.7798 -10.6973
4 10.7895 0.8899 -10.0681
4 9.24811 3.55961 -10.0681
3 9.24811 1.7798 -10.6973
3 10.7895 0.8899 -8.18029
3 9.24811 3.55961 -8.18029
4 12.3308 3.55961 -10.0681
4 10.7895 2.6697 -7.55105
3 12.3308 3.55961 -8.18029
4 15.4135 0 -7.55105
4 16.9549 0.8899 -10.0681
4 13.8722 0.8899 -10.0681
4 15.4135 3.55961 -10.0681
3 15.4135 1.7798 -10.6973
3 16.9549 0.8899 -8.18029
3 13.8722 0.8899 -8.18029
3 15.4135 3.55961 -8.18029
4 16.9549 2.6697 -7.55105
4 13.8722 2.6697 -7.55105
4 3.08271 5.3394 -7.55105
4 0 5.3394 -7.55105
3 1.54135 4.44949 -10.6973
3 3.08271 7.11919 -10.6973
4 1.54135 6.2293 -10.0681
3 0 7.11919 -10.6973
3 1.54135 6.2293 -8.18029
4 1.54135 8.0091 -7.55105
4 6.1654 5.3394 -7.55105
3 7.70676 4.44949 -10.6973
3 4.62405 4.44949 -10.6973
4 7.70676 6.2293 -10.0681
4 4.62405 6.2293 -10.0681
3 6.1654 7.11919 -10.6973
3 7.70676 6.2293 -8.18029
3 4.62405 6.2293 -8.18029
4 7.70676 8.0091 -7.55105
4 4.62405 8.0091 -7.55105
4 9.24811 5.3394 -7.55105
3 10.7895 4.44949 -10.6973
3 9.24811 7.11919 -10.6973
4 10.7895 6.2293 -10.0681
3 12.3308 7.11919 -10.6973
3 10.7895 6.2293 -8.18029
4 10.7895 8.0091 -7.55105
4 12.3308 5.3394 -7.55105
3 16.9549 4.44949 -10.6973
3 13.8722 4.44949 -10.6973
3 15.4135 7.11919 -10.6973
4 16.9549 6.2293 -10.0681
3 16.9549 6.2293 -8.18029
4 13.8722 6.2293 -10.0681
3 13.8722 6.2293 -8.18029
4 16.9549 8.0091 -7.55105
4 13.8722 8.0091 -7.55105
4 15.4135 5.3394 -7.55105
3 1.54135 9.78889 -10.6973
3 0 12.4586 -10.6973
4 1.54135 11.5687 -10.0681
3 3.08271 12.4586 -10.6973
3 1.54135 11.5687 -8.18029
4 0 8.899 -10.0681
3 0 8.899 -8.18029
4 3.08271 8.899 -10.0681
4 3.08271 10.6788 -7.55105
3 3.08271 8.899 -8.18029
4 0 10.6788 -7.55105
3 7.70676 9.78889 -10.6973
3 4.62405 9.78889 -10.6973
3 6.1654 12.4586 -10.6973
4 7.70676 11.5687 -10.0681
3 7.70676 11.5687 -8.18029
4 4.62405 11.5687 -10.0681
3 4.62405 11.5687 -8.18029
4 6.1654 8.899 -10.0681
3 6.1654 8.899 -8.18029
4 6.1654 10.6788 -7.55105
3 10.7895 9.78889 -10.6973
3 12.3308 12.4586 -10.6973
4 10.7895 11.5687 -10.0681
3 9.24811 12.4586 -10.6973
3 10.7895 11.5687 -8.18029
4 12.3308 8.899 -10.0681
3 12.3308 8.899 -8.18029
4 9.24811 8.899 -10.0681
4 9.24811 10.6788 -7.55105
3 9.24811 8.899 -8.18029
4 12.3308 10.6788 -7.55105
3 16.9549 9.78889 -10.6973
3 13.8722 9.78889 -10.6973
4 16.9549 11.5687 -10.0681
4 13.8722 11.5687 -10.0681
3 15.4135 12.4586 -10.6973
3 16.9549 11.5687 -8.18029
3 13.8722 11.5687 -8.18029
4 15.4135 8.899 -10.0681
4 15.4135 10.6788 -7.55105
3 15.4135 8.899 -8.18029
3 1.54135 15.1283 -10.6973
4 1.54135 16.9081 -10.0681
3 1.54135 16.9081 -8.18029
4 3.08271 14.2384 -10.0681
3 3.08271 14.2384 -8.18029
4 0 14.2384 -10.0681
4 1.54135 13.3485 -7.55105
4 0 16.0182 -7.55105
3 0 14.2384 -8.18029
4 3.08271 16.0182 -7.55105
2 6.12839 15.942 -7.50858
3 7.70676 15.1283 -10.6973
3 4.62405 15.1283 -10.6973
4 7.70676 16.9081 -10.0681
4 4.62405 16.9081 -10.0681
3 7.70676 16.9081 -8.18029
3 4.62405 16.9081 -8.18029
4 6.1654 14.2384 -10.0681
4 7.70676 13.3485 -7.55105
4 4.62405 13.3485 -7.55105
3 6.1654 14.2384 -8.18029
3 10.7895 15.1283 -10.6973
4 10.7895 16.9081 -10.0681
3 10.7895 16.9081 -8.18029
4 9.24811 14.2384 -10.0681
3 9.24811 14.2384 -8.18029
4 12.3308 14.2384 -10.0681
4 10.7895 13.3485 -7.55105
4 12.3308 16.0182 -7.55105
3 12.3308 14.2384 -8.18029
4 9.24811 16.0182 -7.55105
2 15.4653 16.007 -7.54847
3 16.9549 15.1283 -10.6973
3 13.8722 15.1283 -10.6973
4 16.9549 16.9081 -10.0681
3 16.9549 16.9081 -8.18029
4 13.8722 16.9081 -10.0681
3 13.8722 16.9081 -8.18029
4 15.4135 14.2384 -10.0681
3 15.4135 14.2384 -8.18029
4 16.9549 13.3485 -7.55105
4 13.8722 13.3485 -7.55105
3 1.54135 20.4677 -10.6973
3 3.08271 17.798 -10.6973
4 0 19.5778 -10.0681
3 0 17.798 -10.6973
3 0 19.5778 -8.18029
4 3.08271 19.5778 -10.0681
4 1.54135 18.6879 -7.55105
3 3.08271 19.5778 -8.18029
3 7.70676 20.4677 -10.6973
3 4.62405 20.4677 -10.6973
4 6.1654 19.5778 -10.0681
3 6.1654 17.798 -10.6973
3 6.1654 19.5778 -8.18029
4 7.70676 18.6879 -7.55105
4 4.62405 18.6879 -7.55105
3 10.7895 20.4677 -10.6973
3 9.24811 17.798 -10.6973
4 12.3308 19.5778 -10.0681
3 12.3308 17.798 -10.6973
3 12.3308 19.5778 -8.18029
4 9.24811 19.5778 -10.0681
4 10.7895 18.6879 -7.55105
3 9.24811 19.5778 -8.18029
2 16.9429 18.7308 -7.52889
3 16.9549 20.4677 -10.6973
3 13.8722 20.4677 -10.6973
3 15.4135 17.798 -10.6973
4 15.4135 19.5778 -10.0681
4 13.8722 18.6879 -7.55105
3 15.4135 19.5778 -8.18029
1 1.52153 2.62318 -5.70285
1 3.12167 0.0463803 -5.71852
2 18.4067 1.8832 -5.07164
1 0.0456891 0.0781838 -5.6395
1 -0.0597135 1.84373 -3.22849
2 3.10042 1.77981 -5.06674
2 1.51014 0.879581 -2.63054
2 3.03902 3.58537 -2.62727
1 2.97916 1.74884 -3.21041
2 18.5025 3.5633 -2.5513
1 7.60695 2.7192 -5.63285
1 4.67317 2.6743 -5.63136
2 6.13087 1.73105 -4.98208
1 6.21041 0.0056397 -5.67158
1 6.10594 1.83703 -3.15885
2 7.72036 1.08565 -2.45317
2 4.62937 0.932186 -2.48349
2 6.17217 3.66156 -2.58707
1 10.7023 2.64273 -5.64604
1 9.24832 21.4085 -5.7438
2 12.2774 1.72254 -5.1188
1 12.273 0.0786821 -5.70801
1 12.2831 1.8008 -3.17302
2 9.15464 1.80119 -5.07874
2 10.8391 0.972967 -2.60774
2 9.30397 3.51864 -2.5502
1 9.24615 1.77379 -3.12092
2 12.235 3.64625 -2.48667
1 16.8711 2.5991 -5.7392
1 13.8441 2.63876 -5.73638
1 15.3811 21.3212 -5.68334
2 15.2937 1.79288 -5.13304
2 16.93 1.01138 -2.58028
2 13.9073 1.01607 -2.57489
2 15.3815 3.62676 -2.48218
1 15.4257 1.85349 -3.25736
1 1.50111 8.09851 -5.69428
1 18.4876 5.33859 -5.62491
2 1.50941 4.36904 -5.05853
2 2.96344 7.25764 -5.08547
1 3.05096 5.34385 -5.63324
1 1.56458 4.47522 -3.18371
1 2.99587 7.09921 -3.17185
2 18.4274 7.07068 -4.99941
2 1.47532 6.20642 -2.55138
1 0.0110961 7.11056 -3.14117
1 7.7249 8.02811 -5.61703
1 4.67496 8.06688 -5.60832
1 6.19629 5.35313 -5.739
2 7.78085 4.38437 -4.94583
1 7.77952 4.50039 -3.16943
2 4.72295 4.46634 -5.02678
1 4.54783 4.47301 -3.14538
2 6.18643 7.10616 -5.14277
2 7.56893 6.21817 -2.45047
2 4.63746 6.10618 -2.48854
1 6.05008 7.10501 -3.11566
1 10.8243 8.08669 -5.59747
1 12.3103 5.39428 -5.63369
2 10.7376 4.36237 -5.09176
2 9.21477 7.08025 -4.97969
1 9.19949 5.40533 -5.68108
1 10.7716 4.39746 -3.17397
1 9.17003 7.18219 -3.0804
2 12.3126 7.17589 -4.94529
2 10.8819 6.183 -2.59489
1 12.3908 7.07354 -3.15999
1 16.8749 8.05001 -5.72294
1 13.8152 7.93436 -5.67751
2 16.9212 4.40559 -4.95048
2 13.9271 4.52872 -5.00721
2 15.3442 7.12824 -5.02124
1 15.4062 5.34087 -5.74546
1 16.853 4.51027 -3.02739
1 13.8186 4.46791 -3.20131
1 15.4907 7.15636 -3.19753
2 16.8963 6.24959 -2.45093
2 14.0271 6.22504 -2.62569
1 3.06974 10.6662 -5.59749
2 1.45123 9.82426 -4.96106
2 -0.0488602 12.4362 -5.12322
1 18.5217 10.7377 -5.64826
1 1.53031 9.79798 -3.16109
1 -0.069608 12.4751 -3.12849
2 3.02957 12.3649 -5.0062
2 1.58822 11.5004 -2.6145
1 3.08673 12.5098 -3.14537
2 18.4868 8.9002 -2.47081
2 3.08719 8.93706 -2.6052
2 7.62231 9.85281 -5.04391
2 4.66538 9.86921 -4.96718
2 6.23594 12.4276 -4.98437
1 6.08331 10.731 -5.7148
1 7.65533 9.84187 -3.15193
1 4.64461 9.88065 -3.1206
1 6.10855 12.5201 -3.15438
2 7.59473 11.5135 -2.55542
2 4.57316 11.6853 -2.52496
2 6.10001 8.90194 -2.49808
1 9.15209 10.7405 -5.61144
2 10.8164 9.90075 -5.05019
2 12.3048 12.445 -5.16563
1 12.2894 10.6746 -5.66145
1 10.7845 9.83327 -3.20344
1 12.3246 12.5297 -3.21903
2 9.23742 12.428 -4.97574
2 10.8092 11.6804 -2.67083
1 9.22663 12.4444 -3.17631
2 12.3222 9.01819 -2.53242
2 9.14259 9.00719 -2.43875
1 15.3758 10.732 -5.74566
2 16.9026 9.73319 -4.98563
1 17.0026 9.87795 -3.2347
2 13.8707 9.79287 -5.11885
1 13.7841 9.86761 -3.18227
2 15.3188 12.4834 -5.07864
2 16.8155 11.4872 -2.5223
2 13.7042 11.5909 -2.40845
1 15.3495 12.3902 -3.08049
2 15.3827 9.12266 -2.46557
1 1.49293 13.3772 -5.63607
1 18.478 16.0299 -5.74243
2 1.49828 15.0909 -4.94782
1 3.11733 16.0466 -5.61299
1 1.56089 15.1338 -3.14094
2 1.45703 17.0298 -2.53727
2 3.09474 14.2548 -2.57506
2 18.5557 14.1645 -2.54594
1 7.7185 13.3395 -5.61268
1 4.61876 13.3695 -5.6508
1 6.21452 16.0279 -5.67207
2 7.67344 15.0339 -4.96654
1 7.64247 15.1165 -3.18251
2 4.65561 15.0443 -5.02954
1 4.64345 15.1406 -3.21273
2 7.82352 16.8835 -2.55929
2 4.7549 17.0132 -2.5298
2 6.18983 14.2132 -2.62877
1 10.8118 13.3574 -5.74774
1 12.2858 15.9534 -5.62785
2 10.7081 15.0976 -5.0686
1 9.18746 15.9336 -5.58356
1 10.8319 15.1512 -3.19631
2 10.6967 16.9384 -2.47589
2 9.28909 14.2773 -2.60587
2 12.2695 14.2294 -2.54352
1 17.0031 13.3347 -5.75443
1 13.8372 13.2864 -5.75041
2 17.0165 15.0204 -5.18048
2 13.9491 15.0002 -5.05886
1 15.4111 15.9608 -5.73673
1 17.0116 15.0879 -3.20608
1 13.8553 15.1233 -3.19503
2 17.0195 16.827 -2.66689
2 13.8759 16.8129 -2.48285
2 15.3485 14.1807 -2.59625
1 1.48902 18.7452 -5.62578
2 1.60313 20.4468 -4.99916
1 1.49222 20.447 -3.15353
2 3.13632 17.8435 -4.98346
1 3.14472 17.7941 -3.09464
2 18.4099 17.7611 -5.13965
2 18.3968 19.7086 -2.5114
1 18.429 17.8582 -3.23164
2 3.05429 19.5372 -2.5481
1 7.77196 18.6859 -5.66087
1 4.61444 18.7213 -5.65603
2 7.69631 20.403 -5.14589
2 4.70003 20.5334 -5.03762
1 7.67314 20.6265 -3.19872
1 4.65974 20.5795 -3.07623
2 6.11996 17.7664 -5.04873
2 6.27593 19.7155 -2.61125
1 6.17056 17.8515 -3.25468
1 10.8194 18.7162 -5.72261
2 10.7473 20.444 -4.99254
1 10.8374 20.452 -3.13082
2 9.16938 17.755 -5.05246
1 9.27764 17.8803 -3.20642
2 12.2958 17.8664 -5.02638
2 12.2646 19.6103 -2.40564
1 12.2928 17.8106 -3.10086
2 9.26105 19.7398 -2.43067
1 16.889 18.6864 -5.65325
1 13.8558 18.7466 -5.59906
2 16.972 20.577 -5.0649
1 16.9616 20.6222 -3.14998
2 13.7309 20.5028 -5.04357
1 13.8997 20.4221 -3.0709
2 15.3929 17.8123 -5.0655
1 15.3833 17.7633 -3.26592
2 15.3828 19.5461 -2.63734
1 1.53127 0.872894 -0.732678
1 3.02558 3.5491 -0.704345
2 1.52775 2.6122 -0.391039
1 18.3224 3.37883 -0.588362
2 3.12163 0.152077 -0.26896
2 18.4763 0.0232414 -0.556113
1 7.80267 1.2256 -0.604932
1 4.62959 1.0212 -0.700629
2 4.59833 2.86328 -0.449339
1 6.0018 3.99515 -0.547934
2 6.27159 0.216236 -0.391731
1 10.8333 0.960771 -0.646757
1 9.18939 3.51397 -0.556787
2 10.9105 2.74016 -0.370393
1 12.457 3.60818 -0.56246
2 9.25506 0.127522 -0.104278
2 12.402 0.123406 -0.232718
1 16.9209 1.09369 -0.688203
1 13.9024 0.982127 -0.692745
1 15.0715 3.07795 -0.481887
2 15.4333 0.00245656 -0.605824
1 1.42591 6.18106 -0.583618
2 1.39951 7.84935 -0.18758
2 18.3062 5.20476 -0.224512
2 2.95358 5.30321 -0.276889
1 7.65738 6.06408 -0.654387
1 4.54755 6.11751 -0.528013
2 7.74982 7.88486 -0.431087
2 4.62702 7.95982 -0.412432
1 10.8541 6.30441 -0.654731
2 10.842 8.08453 -0.181614
2 12.5475 5.39703 -0.401637
2 9.25716 5.28317 -0.403599
1 16.8374 6.40182 -0.618046
1 14.1722 6.29094 -0.631632
2 14.0678 8.17122 -0.170883
1 1.43983 11.4803 -0.720744
1 18.2381 8.71689 -0.603426
2 3.00095 10.6438 -0.280967
1 3.01128 8.82079 -0.68322
2 18.4767 10.6365 -0.365233
1 7.70651 11.6095 -0.619979
1 4.65068 11.53 -0.657051
1 6.14119 8.80592 -0.615648
2 6.21102 10.6695 -0.360785
1 10.8229 11.5671 -0.807234
1 12.4935 9.08252 -0.462226
2 9.27938 10.7105 -0.483976
1 9.33334 8.89194 -0.443279
1 16.8798 11.4092 -0.609921
1 13.2319 11.5145 -0.460217
1 15.644 9.18649 -0.584714
1 1.48282 16.8804 -0.629969
1 3.13253 14.2159 -0.657755
2 1.54573 13.3875 -0.469903
2 18.5265 16.0315 -0.122972
1 18.3411 14.1717 -0.495183
2 3.17963 16.0464 -0.589154
1 7.73848 16.9478 -0.666812
1 4.73453 16.9184 -0.740386
2 7.63935 13.3154 -0.316976