588
Atoms. Timestep: 0
4 1.54135 2.6697 -13.2143
3 3.08271 8.88179e-16 -15.1021
4 3.08271 8.88179e-16 -13.2143
3 0 0 -15.1021
3 0 1.7798 -12.5851
4 0 0 -13.2143
3 3.08271 1.7798 -12.5851
4 7.70676 2.6697 -13.2143
4 4.62405 2.6697 -13.2143
3 6.1654 0 -15.1021
3 6.1654 1.7798 -12.5851
4 6.1654 0 -13.2143
4 10.7895 2.6697 -13.2143
4 9.24811 0 -13.2143
3 12.3308 0 -15.1021
3 12.3308 1.7798 -12.5851
4 12.3308 0 -13.2143
3 9.24811 1.7798 -12.5851
4 16.9549 2.6697 -13.2143
3 13.8722 2.6697 -15.1021
4 13.8722 2.6697 -13.2143
3 15.4135 8.88179e-16 -15.1021
4 15.4135 0 -13.2143
3 15.4135 1.7798 -12.5851
4 1.54135 8.0091 -13.2143
4 0 5.3394 -13.2143
3 1.54135 4.44949 -12.5851
3 3.08271 7.11919 -12.5851
4 3.08271 5.3394 -13.2143
3 0 7.11919 -12.5851
4 7.70676 8.0091 -13.2143
4 4.62405 8.0091 -13.2143
4 6.1654 5.3394 -13.2143
3 7.70676 4.44949 -12.5851
3 4.62405 4.44949 -12.5851
3 6.1654 7.11919 -12.5851
4 10.7895 8.0091 -13.2143
4 12.3308 5.3394 -13.2143
3 10.7895 4.44949 -12.5851
3 9.24811 7.11919 -12.5851
4 9.24811 5.3394 -13.2143
3 12.3308 7.11919 -12.5851
4 16.9549 8.0091 -13.2143
4 13.8722 8.0091 -13.2143
3 16.9549 4.44949 -12.5851
3 13.8722 4.44949 -12.5851
3 15.4135 7.11919 -12.5851
4 15.4135 5.3394 -13.2143
3 3.08271 10.6788 -15.1021
4 3.08271 10.6788 -13.2143
3 0 10.6788 -15.1021
3 1.54135 9.78889 -12.5851
3 0 12.4586 -12.5851
4 0 10.6788 -13.2143
3 3.08271 12.4586 -12.5851
3 6.1654 10.6788 -15.1021
3 7.70676 9.78889 -12.5851
3 4.62405 9.78889 -12.5851
3 6.1654 12.4586 -12.5851
4 6.1654 10.6788 -13.2143
3 9.24811 10.6788 -15.1021
4 9.24811 10.6788 -13.2143
3 10.7895 9.78889 -12.5851
3 12.3308 12.4586 -12.5851
4 12.3308 10.6788 -13.2143
3 9.24811 12.4586 -12.5851
4 15.4135 10.6788 -13.2143
3 16.9549 9.78889 -12.5851
3 13.8722 9.78889 -12.5851
3 15.4135 12.4586 -12.5851
3 1.54135 13.3485 -15.1021
4 1.54135 13.3485 -13.2143
4 0 16.0182 -13.2143
3 1.54135 15.1283 -12.5851
4 3.08271 16.0182 -13.2143
3 7.70676 13.3485 -15.1021
4 7.70676 13.3485 -13.2143
4 4.62405 13.3485 -13.2143
4 6.1654 16.0182 -13.2143
3 7.70676 15.1283 -12.5851
3 4.62405 15.1283 -12.5851
4 10.7895 13.3485 -13.2143
4 12.3308 16.0182 -13.2143
3 10.7895 15.1283 -12.5851
4 9.24811 16.0182 -13.2143
4 16.9549 13.3485 -13.2143
4 13.8722 13.3485 -13.2143
3 16.9549 15.1283 -12.5851
3 13.8722 15.1283 -12.5851
4 15.4135 16.0182 -13.2143
4 1.54135 18.6879 -13.2143
3 1.54135 20.4677 -12.5851
3 3.08271 17.798 -12.5851
3 0 17.798 -12.5851
4 7.70676 18.6879 -13.2143
4 4.62405 18.6879 -13.2143
3 7.70676 20.4677 -12.5851
3 4.62405 20.4677 -12.5851
3 6.1654 17.798 -12.5851
4 10.7895 18.6879 -13.2143
3 10.7895 20.4677 -12.5851
3 9.24811 17.798 -12.5851
3 12.3308 17.798 -12.5851
4 16.9549 18.6879 -13.2143
4 13.8722 18.6879 -13.2143
3 16.9549 20.4677 -12.5851
3 13.8722 20.4677 -12.5851
3 15.4135 17.798 -12.5851
3 0 0 -7.55105
3 3.08271 0 -7.55105
4 0 3.55961 -8.18029
3 1.54135 2.6697 -7.55105
3 0 3.55961 -10.0681
4 0 1.7798 -10.6973
3 1.54135 0.8899 -10.0681
3 3.08271 3.55961 -10.0681
4 3.08271 1.7798 -10.6973
4 1.54135 0.8899 -8.18029
4 3.08271 3.55961 -8.18029
3 6.1654 0 -7.55105
4 6.1654 3.55961 -8.18029
3 4.62405 2.6697 -7.55105
3 7.70676 2.6697 -7.55105
4 6.1654 1.7798 -10.6973
3 7.70676 0.8899 -10.0681
4 7.70676 0.8899 -8.18029
3 4.62405 0.8899 -10.0681
4 4.62405 0.8899 -8.18029
3 6.1654 3.55961 -10.0681
3 12.3308 4.44088e-16 -7.55105
3 9.24811 4.44088e-16 -7.55105
4 12.3308 1.7798 -10.6973
3 10.7895 0.8899 -10.0681
3 9.24811 3.55961 -10.0681
4 9.24811 1.7798 -10.6973
4 10.7895 0.8899 -8.18029
4 9.24811 3.55961 -8.18029
3 12.3308 3.55961 -10.0681
3 10.7895 2.6697 -7.55105
4 12.3308 3.55961 -8.18029
3 15.4135 0 -7.55105
3 16.9549 0.8899 -10.0681
3 13.8722 0.8899 -10.0681
3 15.4135 3.55961 -10.0681
4 15.4135 1.7798 -10.6973
4 16.9549 0.8899 -8.18029
4 13.8722 0.8899 -8.18029
4 15.4135 3.55961 -8.18029
3 16.9549 2.6697 -7.55105
3 13.8722 2.6697 -7.55105
3 3.08271 5.3394 -7.55105
3 0 5.3394 -7.55105
4 1.54135 4.44949 -10.6973
4 3.08271 7.11919 -10.6973
3 1.54135 6.2293 -10.0681
4 0 7.11919 -10.6973
4 1.54135 6.2293 -8.18029
3 1.54135 8.0091 -7.55105
3 6.1654 5.3394 -7.55105
4 7.70676 4.44949 -10.6973
4 4.62405 4.44949 -10.6973
3 7.70676 6.2293 -10.0681
3 4.62405 6.2293 -10.0681
4 6.1654 7.11919 -10.6973
4 7.70676 6.2293 -8.18029
4 4.62405 6.2293 -8.18029
3 7.70676 8.0091 -7.55105
3 4.62405 8.0091 -7.55105
3 9.24811 5.3394 -7.55105
4 10.7895 4.44949 -10.6973
4 9.24811 7.11919 -10.6973
3 10.7895 6.2293 -10.0681
4 12.3308 7.11919 -10.6973
4 10.7895 6.2293 -8.18029
3 10.7895 8.0091 -7.55105
3 12.3308 5.3394 -7.55105
4 16.9549 4.44949 -10.6973
4 13.8722 4.44949 -10.6973
4 15.4135 7.11919 -10.6973
3 16.9549 6.2293 -10.0681
4 16.9549 6.2293 -8.18029
3 13.8722 6.2293 -10.0681
4 13.8722 6.2293 -8.18029
3 16.9549 8.0091 -7.55105
3 13.8722 8.0091 -7.55105
3 15.4135 5.3394 -7.55105
4 1.54135 9.78889 -10.6973
4 0 12.4586 -10.6973
3 1.54135 11.5687 -10.0681
4 3.08271 12.4586 -10.6973
4 1.54135 11.5687 -8.18029
3 0 8.899 -10.0681
4 0 8.899 -8.18029
3 3.08271 8.899 -10.0681
3 3.08271 10.6788 -7.55105
4 3.08271 8.899 -8.18029
3 0 10.6788 -7.55105
4 7.70676 9.78889 -10.6973
4 4.62405 9.78889 -10.6973
4 6.1654 12.4586 -10.6973
3 7.70676 11.5687 -10.0681
4 7.70676 11.5687 -8.18029
3 4.62405 11.5687 -10.0681
4 4.62405 11.5687 -8.18029
3 6.1654 8.899 -10.0681
4 6.1654 8.899 -8.18029
3 6.1654 10.6788 -7.55105
4 10.7895 9.78889 -10.6973
4 12.3308 12.4586 -10.6973
3 10.7895 11.5687 -10.0681
4 9.24811 12.4586 -10.6973
4 10.7895 11.5687 -8.18029
3 12.3308 8.899 -10.0681
4 12.3308 8.899 -8.18029
3 9.24811 8.899 -10.0681
3 9.24811 10.6788 -7.55105
4 9.24811 8.899 -8.18029
3 12.3308 10.6788 -7.55105
4 16.9549 9.78889 -10.6973
4 13.8722 9.78889 -10.6973
3 16.9549 11.5687 -10.0681
3 13.8722 11.5687 -10.0681
4 15.4135 12.4586 -10.6973
4 16.9549 11.5687 -8.18029
4 13.8722 11.5687 -8.18029
3 15.4135 8.899 -10.0681
3 15.4135 10.6788 -7.55105
4 15.4135 8.899 -8.18029
4 1.54135 15.1283 -10.6973
3 1.54135 16.9081 -10.0681
4 1.54135 16.9081 -8.18029
3 3.08271 14.2384 -10.0681
4 3.08271 14.2384 -8.18029
3 0 14.2384 -10.0681
3 1.54135 13.3485 -7.55105
3 0 16.0182 -7.55105
4 0 14.2384 -8.18029
3 3.08271 16.0182 -7.55105
1 6.12443 15.9406 -7.57397
4 7.70676 15.1283 -10.6973
4 4.62405 15.1283 -10.6973
3 7.70676 16.9081 -10.0681
3 4.62405 16.9081 -10.0681
4 7.70676 16.9081 -8.18029
4 4.62405 16.9081 -8.18029
3 6.1654 14.2384 -10.0681
3 7.70676 13.3485 -7.55105
3 4.62405 13.3485 -7.55105
4 6.1654 14.2384 -8.18029
4 10.7895 15.1283 -10.6973
3 10.7895 16.9081 -10.0681
4 10.7895 16.9081 -8.18029
3 9.24811 14.2384 -10.0681
4 9.24811 14.2384 -8.18029
3 12.3308 14.2384 -10.0681
3 10.7895 13.3485 -7.55105
3 12.3308 16.0182 -7.55105
4 12.3308 14.2384 -8.18029
3 9.24811 16.0182 -7.55105
1 15.4095 16.0334 -7.49426
4 16.9549 15.1283 -10.6973
4 13.8722 15.1283 -10.6973
3 16.9549 16.9081 -10.0681
4 16.9549 16.9081 -8.18029
3 13.8722 16.9081 -10.0681
4 13.8722 16.9081 -8.18029
3 15.4135 14.2384 -10.0681
4 15.4135 14.2384 -8.18029
3 16.9549 13.3485 -7.55105
3 13.8722 13.3485 -7.55105
4 1.54135 20.4677 -10.6973
4 3.08271 17.798 -10.6973
3 0 19.5778 -10.0681
4 0 17.798 -10.6973
4 0 19.5778 -8.18029
3 3.08271 19.5778 -10.0681
3 1.54135 18.6879 -7.55105
4 3.08271 19.5778 -8.18029
4 7.70676 20.4677 -10.6973
4 4.62405 20.4677 -10.6973
3 6.1654 19.5778 -10.0681
4 6.1654 17.798 -10.6973
4 6.1654 19.5778 -8.18029
3 7.70676 18.6879 -7.55105
3 4.62405 18.6879 -7.55105
4 10.7895 20.4677 -10.6973
4 9.24811 17.798 -10.6973
3 12.3308 19.5778 -10.0681
4 12.3308 17.798 -10.6973
4 12.3308 19.5778 -8.18029
3 9.24811 19.5778 -10.0681
3 10.7895 18.6879 -7.55105
4 9.24811 19.5778 -8.18029
1 16.9964 18.6537 -7.55437
4 16.9549 20.4677 -10.6973
4 13.8722 20.4677 -10.6973
4 15.4135 17.798 -10.6973
3 15.4135 19.5778 -10.0681
3 13.8722 18.6879 -7.55105
4 15.4135 19.5778 -8.18029
2 1.43614 2.70026 -5.67748
2 3.10995 21.3386 -5.58696
1 18.4705 1.81179 -4.92902
2 0.0234839 21.2541 -5.60366
2 0.0457683 1.78584 -2.9624
1 3.06536 1.74132 -5.08261
1 1.48275 0.860924 -2.4074
1 3.04548 3.56138 -2.49647
2 3.09788 1.75528 -3.14673
1 18.4676 3.6095 -2.38686
2 7.76399 2.52357 -5.45328
2 4.52197 2.73012 -5.62617
1 6.17082 1.65217 -4.95542
2 6.1617 21.2982 -5.78906
2 6.12471 1.79065 -3.07035
1 7.71416 0.89512 -2.51541
1 4.50818 0.916905 -2.37677
1 6.16065 3.51843 -2.47342
2 10.8543 2.62886 -5.63511
2 9.26683 21.3389 -5.69482
1 12.4597 1.70411 -4.99097
2 12.3743 21.3167 -5.69237
2 12.3271 1.74789 -3.16803
1 9.27665 1.6667 -4.93156
1 10.8467 0.876761 -2.51097
1 9.24942 3.5765 -2.52803
2 9.36297 1.69918 -3.10046
1 12.3757 3.5145 -2.49179
2 16.9778 2.68875 -5.60783
2 14.0125 2.64935 -5.63653
2 15.4255 0.0033821 -5.70953
1 15.4686 1.74425 -4.92464
1 16.862 0.911209 -2.37647
1 13.8457 0.838945 -2.37429
1 15.46 3.56433 -2.38513
2 15.3925 1.78984 -3.129
2 1.58671 7.94353 -5.55114
2 0.00598989 5.38216 -5.56138
1 1.47709 4.48433 -4.9132
1 3.10453 6.98197 -4.99659
2 3.04261 5.2664 -5.67661
2 1.46395 4.46425 -3.02625
2 3.17225 6.99811 -3.10119
1 0.0493486 7.1936 -4.99831
1 1.57215 6.23778 -2.4611
2 0.0844937 7.12481 -3.0293
2 7.71017 7.8587 -5.69065
2 4.58993 7.88986 -5.68271
2 6.10425 5.32182 -5.62882
1 7.67628 4.35522 -4.93192
2 7.64142 4.55337 -3.18434
1 4.59803 4.43399 -5.01359
2 4.63948 4.51359 -3.06047
1 6.174 7.04162 -4.99309
1 7.6424 6.20652 -2.4398
1 4.66066 6.22928 -2.4778
2 6.18377 7.04636 -3.10001
2 10.8317 8.0456 -5.68624
2 12.3381 5.3146 -5.62538
1 10.8035 4.48364 -5.0386
1 9.2711 7.1709 -4.96953
2 9.2212 5.32334 -5.66465
2 10.7363 4.48546 -3.18364
2 9.1287 7.08028 -2.97828
1 12.2544 7.07765 -5.00097
1 10.6611 6.1899 -2.51169
2 12.1876 7.10245 -3.10677
2 16.9781 8.07644 -5.59998
2 13.7961 8.13769 -5.56709
1 16.8973 4.50162 -5.0106
1 13.9176 4.44599 -4.94971
1 15.4745 7.19518 -5.01335
2 15.5065 5.47406 -5.71243
2 16.9215 4.47115 -3.08207
2 13.964 4.36329 -3.04383
2 15.4074 7.16257 -3.0097
1 16.9367 6.27576 -2.5303
1 13.9234 6.14522 -2.49553
2 3.06127 10.7039 -5.67929
1 1.5484 9.77007 -5.04316
1 18.4719 12.4684 -5.02592
2 18.4774 10.7909 -5.64474
2 1.61239 9.7009 -3.05968
2 18.4951 12.3786 -3.19056
1 3.02533 12.4499 -4.98949
1 1.60015 11.5219 -2.47759
2 3.14167 12.3486 -3.08373
1 0.0269706 8.94035 -2.37719
1 3.0941 8.85953 -2.4833
1 7.68692 9.7994 -5.01362
1 4.591 9.66642 -5.01879
1 6.15184 12.4094 -5.04757
2 6.17396 10.5967 -5.74559
2 7.55415 9.72979 -3.15383
2 4.58334 9.79395 -3.26565
2 6.33876 12.4651 -3.09185
1 7.71192 11.6065 -2.42836
1 4.72155 11.5747 -2.4295
1 6.08346 8.90896 -2.47813
2 9.31029 10.6106 -5.74324
1 10.8434 9.80269 -4.96971
1 12.3667 12.4598 -5.09061
2 12.4084 10.7179 -5.67129
2 10.7579 9.84581 -3.12293
2 12.3405 12.3788 -3.16443
1 9.22358 12.5085 -4.93053
1 10.7838 11.6419 -2.49771
2 9.30935 12.3985 -3.12103
1 12.2387 8.95088 -2.43561
1 9.16939 8.88275 -2.5328
2 15.4135 10.6655 -5.74158
1 16.8585 9.85693 -4.9769
2 17.0163 9.76102 -3.06959
1 13.836 9.83752 -5.02374
2 13.8324 9.82216 -3.10532
1 15.3442 12.4987 -5.07017
1 16.9606 11.5568 -2.51607
1 13.8757 11.5752 -2.46364
2 15.4268 12.5324 -3.02936
1 15.3285 8.99086 -2.44838
2 1.56798 13.3544 -5.60312
2 18.4483 15.9777 -5.51175
1 1.5376 15.0984 -4.9489
2 3.08866 15.8957 -5.64193
2 1.55165 15.1445 -2.94717
1 1.50599 16.8673 -2.46907
1 3.19493 14.2304 -2.37012
1 18.4043 14.204 -2.48016
2 7.67771 13.3514 -5.66779
2 4.56844 13.2697 -5.63949
2 6.19749 15.9474 -5.55072
1 7.66622 15.0654 -4.81923
2 7.63994 15.1804 -3.05534
1 4.63208 15.0022 -5.00064
2 4.64797 15.2566 -3.05899
1 7.79149 16.9125 -2.48571
1 4.63887 16.8722 -2.5003
1 6.20583 14.2026 -2.36602
2 10.8116 13.4046 -5.71919
2 12.3562 15.8949 -5.64097
1 10.6581 15.1631 -4.98351
2 9.11534 16.0301 -5.75855
2 10.6869 15.1247 -2.94796
1 10.803 16.8752 -2.50073
1 9.24151 14.1743 -2.39084
1 12.2848 14.2456 -2.41703
2 16.8596 13.3665 -5.5679
2 13.8339 13.2469 -5.70032
1 16.8954 15.1308 -4.97125
1 13.7702 15.0574 -4.97179
2 15.3597 16.0547 -5.48846
2 16.9764 15.0326 -3.04772
2 13.7287 15.0321 -2.96288
1 16.9085 16.8846 -2.38088
1 13.8219 16.9052 -2.42688
1 15.3522 14.2839 -2.26978
2 1.45588 18.6974 -5.63674
1 1.62665 20.4721 -4.96617
2 1.55749 20.4732 -3.07557
1 2.9798 17.7941 -5.05694
2 3.11256 17.7678 -3.20941
1 18.4143 17.8241 -4.88486
1 18.4796 19.5855 -2.43536
2 18.4882 17.8681 -3.12136
1 3.04938 19.4964 -2.5097
2 7.66189 18.54 -5.65096
2 4.50335 18.5443 -5.65477
1 7.61646 20.4017 -5.04984
1 4.574 20.428 -5.01172
2 7.86753 20.481 -3.00927
2 4.49207 20.3858 -3.08376
1 6.04658 17.7256 -5.03743
1 6.19895 19.5558 -2.5509
2 6.22266 17.7288 -3.08463
2 10.7977 18.6761 -5.631
1 10.8864 20.4176 -5.04504
2 10.9472 20.4618 -3.09025
1 9.22397 17.8519 -5.10696
2 9.31351 17.87 -3.00227
1 12.244 17.7074 -5.01187
1 12.418 19.6171 -2.47475
2 12.3042 17.8334 -3.10481
1 9.40551 19.6081 -2.46805
2 16.951 18.7542 -5.73125
2 13.9117 18.484 -5.63619
1 16.9299 20.5068 -4.9563
2 16.9222 20.5377 -3.14604
1 13.874 20.4374 -4.98759
2 13.8403 20.4975 -3.16023
1 15.4705 17.8261 -4.99031
2 15.2574 17.7586 -3.06684
1 15.3879 19.6229 -2.49882
2 1.50395 0.966192 -0.355081
2 3.00619 3.43894 -0.555516
1 1.45788 2.67284 0.136946
2 18.4656 3.55747 -0.324272
1 3.0029 21.2433 0.170895
1 18.4116 0.0318269 0.161049
2 7.69013 0.889223 -0.537997
2 4.51387 0.751027 -0.520297
1 7.71599 2.66607 -0.0590492
1 4.65533 2.58254 0.136191
2 6.20827 3.60401 -0.480096
1 6.19616 21.2223 0.0526157
2 10.8562 0.868372 -0.548629
2 9.30302 3.45248 -0.575934
1 10.918 2.61058 -0.0103298
2 12.4391 3.67284 -0.487345
1 9.32783 21.3315 0.0265797
1 12.3348 21.3154 0.0506826
2 16.9478 0.931958 -0.26915
2 13.9258 0.733571 -0.463544
2 15.5119 3.68591 -0.378096
1 16.9615 2.63049 0.257098
1 13.8968 2.80197 0.0222001
1 15.3678 21.3049 0.0885889
2 1.59121 6.23437 -0.473451
1 1.5199 8.10486 0.171892
1 18.4663 5.51966 0.00579921
1 3.13579 5.23932 -0.000634288
2 7.58199 6.18873 -0.397185
2 4.61921 6.18319 -0.478918
1 7.73404 8.07332 -0.0685937
1 4.54458 7.92905 0.0241029
1 6.15269 5.35932 0.129667
2 10.8058 6.20483 -0.488794
1 10.702 7.94936 -0.0830615
1 12.2772 5.40529 0.0492328
1 9.23781 5.24837 -0.0895856
2 16.9759 6.40017 -0.523106
2 13.8672 6.25243 -0.439139
1 16.8881 8.10275 0.0589284
1 13.8258 8.0494 -0.0362148
1 15.4489 5.39982 0.0104507
2 1.55667 11.5705 -0.583545
2 0.0162121 8.92878 -0.553582
1 3.1055 10.6489 0.0126556
2 3.05798 8.93036 -0.500604
1 4.29967e-05 10.7543 0.048961
2 7.59074 11.6367 -0.526761
2 4.81275 11.5062 -0.502749
2 6.10703 9.00532 -0.562281
1 6.22207 10.6764 0.152561
2 10.754 11.5847 -0.591791
2 12.2568 8.87831 -0.591549
1 9.28614 10.6452 -0.0453969
2 9.26537 8.92726 -0.653438
1 12.3176 10.6077 0.0652713
2 16.8904 11.5891 -0.510421
2 13.8702 11.5697 -0.44518
1 15.3973 10.8076 0.0767187
2 15.2748 9.05284 -0.541682
2 1.51395 16.8525 -0.457412
2 3.1015 14.1283 -0.490939
1 1.50301 13.3775 -0.0376344
1 18.4508 16.0282 -0.00114776
2 18.4858 14.249 -0.5473
1 3.01392 15.9455 0.086082
2 7.83622 16.8179 -0.555606
2 4.65461 16.9129 -0.510511
1 7.72445 13.3185 0.130543
1 4.55046 13.254 0.206446
1 6.24615 15.945 0.0476924
2 6.12129 14.148 -0.521747
2 10.8148 16.797 -0.556422
2 9.22808 14.3111 -0.391537
1 10.7425 13.3016 0.105654
1 12.2462 15.906 0.0973783
2 12.2434 14.1568 -0.443458
1 9.26017 16.0201 0.227981
2 16.8805 16.8652 -0.575873
2 13.8649 16.821 -0.412408
2 15.334 14.196 -0.248158
1 16.8784 13.3593 0.117827
1 13.792 13.3269 0.156216
1 15.4032 15.9811 0.18349
2 0.0324353 19.5984 -0.356621
1 1.46175 18.6497 0.100822
2 3.00377 19.5338 -0.518153
2 6.17224 19.5463 -0.491785
1 7.756 18.6321 0.0809774
1 4.58301 18.6775 0.0984053
2 12.3684 19.5364 -0.560983
1 10.8544 18.5869 -0.0691676
2 9.30702 19.5397 -0.57681
1 16.8696 18.6438 0.0370908
1 13.8764 18.6732 0.00845717
2 15.4564 19.5906 -0.473602
588
Atoms. Timestep: 10
4 1.54135 2.6697 -13.2143
3 3.08271 8.88179e-16 -15.1021
4 3.08271 8.88179e-16 -13.2143
3 0 0 -15.1021
3 0 1.7798 -12.5851
4 0 0 -13.2143
3 3.21748 2.10354 -12.3936
4 7.70676 2.6697 -13.2143
4 4.62405 2.6697 -13.2143
3 6.1654 0 -15.1021
3 6.1654 1.7798 -12.5851
4 6.1654 0 -13.2143
4 10.7895 2.6697 -13.2143
4 9.24811 0 -13.2143
3 12.3308 0 -15.1021
3 12.3308 1.7798 -12.5851
4 12.3308 0 -13.2143
3 9.24811 1.7798 -12.5851
4 16.9549 2.6697 -13.2143
3 14.144 2.31132 -14.8428
4 13.8722 2.6697 -13.2143
3 15.4135 8.88179e-16 -15.1021
4 15.4135 0 -13.2143
3 15.4135 1.7798 -12.5851
4 1.54135 8.0091 -13.2143
4 0 5.3394 -13.2143
3 1.54135 4.44949 -12.5851
3 3.08271 7.11919 -12.5851
4 3.08271 5.3394 -13.2143
3 0 7.11919 -12.5851
4 7.70676 8.0091 -13.2143
4 4.62405 8.0091 -13.2143
4 6.27357 4.95864 -12.7342
3 7.70676 4.44949 -12.5851
3 4.62405 4.44949 -12.5851
3 6.1654 7.11919 -12.5851
4 10.7895 8.0091 -13.2143
4 12.3308 5.3394 -13.2143
3 10.7895 4.44949 -12.5851
3 9.24811 7.11919 -12.5851
4 9.24811 5.3394 -13.2143
3 12.3308 7.11919 -12.5851
4 16.9549 8.0091 -13.2143
4 13.8722 8.0091 -13.2143
3 16.9549 4.44949 -12.5851
3 13.8722 4.44949 -12.5851
3 15.4135 7.11919 -12.5851
4 15.4135 5.3394 -13.2143
3 3.08271 10.6788 -15.1021
4 3.08271 10.6788 -13.2143
3 0 10.6788 -15.1021
3 1.54135 9.78889 -12.5851
3 0 12.4586 -12.5851
4 18.4941 10.5453 -13.2048
3 3.08271 12.4586 -12.5851
3 6.1654 10.6788 -15.1021
3 7.70676 9.78889 -12.5851
3 4.62405 9.78889 -12.5851
3 6.1654 12.4586 -12.5851
4 6.1654 10.6788 -13.2143
3 9.24811 10.6788 -15.1021
4 9.24811 10.6788 -13.2143
3 10.7895 9.78889 -12.5851
3 12.3308 12.4586 -12.5851
4 12.3308 10.6788 -13.2143
3 9.24811 12.4586 -12.5851
4 15.4135 10.6788 -13.2143
3 16.9549 9.78889 -12.5851
3 13.8722 9.78889 -12.5851
3 15.8124 12.8559 -12.2133
3 1.54135 13.3485 -15.1021
4 1.54135 13.3485 -13.2143
4 0 16.0182 -13.2143
3 1.54135 15.1283 -12.5851
4 3.08271 16.0182 -13.2143
3 7.70676 13.3485 -15.1021
4 7.70676 13.3485 -13.2143
4 4.62405 13.3485 -13.2143
4 6.1654 16.0182 -13.2143
3 7.70676 15.1283 -12.5851
3 4.62405 15.1283 -12.5851
4 11.1935 13.6644 -12.8483
4 12.3308 16.0182 -13.2143
3 10.7895 15.1283 -12.5851
4 9.24811 16.0182 -13.2143
4 16.9549 13.3485 -13.2143
4 13.8722 13.3485 -13.2143
3 16.9549 15.1283 -12.5851
3 13.8722 15.1283 -12.5851
4 15.4135 16.0182 -13.2143
4 1.54135 18.6879 -13.2143
3 1.54135 20.4677 -12.5851
3 3.08271 17.798 -12.5851
3 0 17.798 -12.5851
4 7.70676 18.6879 -13.2143
4 4.62405 18.6879 -13.2143
3 7.70676 20.4677 -12.5851
3 4.62405 20.4677 -12.5851
3 6.1654 17.798 -12.5851
4 10.7895 18.6879 -13.2143
3 10.7895 20.4677 -12.5851
3 9.24811 17.798 -12.5851
3 12.3308 17.798 -12.5851
4 16.9549 18.6879 -13.2143
4 13.8722 18.6879 -13.2143
3 16.9549 20.4677 -12.5851
3 13.8722 20.4677 -12.5851
3 15.4135 17.798 -12.5851
3 0 0 -7.55105
3 3.08271 0 -7.55105
4 0 3.55961 -8.18029
3 1.54135 2.6697 -7.55105
3 0 3.55961 -10.0681
4 0 1.7798 -10.6973
3 1.54135 0.8899 -10.0681
3 3.08271 3.55961 -10.0681
4 3.08271 1.7798 -10.6973
4 1.54135 0.8899 -8.18029
4 3.08271 3.55961 -8.18029
3 6.1654 0 -7.55105
4 6.1654 3.55961 -8.18029
3 4.1597 2.83785 -7.0692
3 7.70676 2.6697 -7.55105
4 6.1654 1.7798 -10.6973
3 7.70676 0.8899 -10.0681
4 7.70676 0.8899 -8.18029
3 4.62405 0.8899 -10.0681
4 4.62405 0.8899 -8.18029
3 6.1654 3.55961 -10.0681
3 12.3308 4.44088e-16 -7.55105
3 9.24811 4.44088e-16 -7.55105
4 12.3308 1.7798 -10.6973
3 10.7895 0.8899 -10.0681
3 9.24811 3.55961 -10.0681
4 9.24811 1.7798 -10.6973
4 10.7895 0.8899 -8.18029
4 9.24811 3.55961 -8.18029
3 12.3308 3.55961 -10.0681
3 10.7895 2.6697 -7.55105
4 12.3308 3.55961 -8.18029
3 15.4135 0 -7.55105
3 16.9549 0.8899 -10.0681
3 14.0146 0.967794 -10.2041
3 15.4135 3.55961 -10.0681
4 15.4135 1.7798 -10.6973
4 16.9549 0.8899 -8.18029
4 13.8722 0.8899 -8.18029
4 15.4135 3.55961 -8.18029
3 17.1898 2.26471 -7.63319
3 13.8722 2.6697 -7.55105
3 3.08271 5.3394 -7.55105
3 0 5.3394 -7.55105
4 1.54135 4.44949 -10.6973
4 3.08271 7.11919 -10.6973
3 1.54135 6.2293 -10.0681
4 0 7.11919 -10.6973
4 1.54135 6.2293 -8.18029
3 1.54135 8.0091 -7.55105
3 6.1654 5.3394 -7.55105
4 7.70676 4.44949 -10.6973
4 4.62405 4.44949 -10.6973
3 7.70676 6.2293 -10.0681
3 4.62405 6.2293 -10.0681
4 6.1654 7.11919 -10.6973
4 7.70676 6.2293 -8.18029
4 4.62405 6.2293 -8.18029
3 7.70676 8.0091 -7.55105
3 4.62405 8.0091 -7.55105
3 9.24811 5.3394 -7.55105
4 10.7895 4.44949 -10.6973
4 9.24811 7.11919 -10.6973
3 10.7895 6.2293 -10.0681
4 12.3308 7.11919 -10.6973
4 10.6045 5.75821 -8.65998
3 10.7895 8.0091 -7.55105
3 12.3308 5.3394 -7.55105
4 16.9549 4.44949 -10.6973
4 13.8722 4.44949 -10.6973
4 15.4135 7.11919 -10.6973
3 16.9549 6.2293 -10.0681
4 16.9549 6.2293 -8.18029
3 13.8722 6.2293 -10.0681
4 13.8722 6.2293 -8.18029
3 16.9549 8.0091 -7.55105
3 13.8722 8.0091 -7.55105
3 15.4135 5.3394 -7.55105
4 1.54135 9.78889 -10.6973
4 0 12.4586 -10.6973
3 1.54135 11.5687 -10.0681
4 3.08271 12.4586 -10.6973
4 1.54135 11.5687 -8.18029
3 0 8.899 -10.0681
4 0 8.899 -8.18029
3 3.08271 8.899 -10.0681
3 3.08271 10.6788 -7.55105
4 3.08271 8.899 -8.18029
3 0 10.6788 -7.55105
4 7.70676 9.78889 -10.6973
4 4.62405 9.78889 -10.6973
4 6.1654 12.4586 -10.6973
3 7.70676 11.5687 -10.0681
4 7.70676 11.5687 -8.18029
3 4.62405 11.5687 -10.0681
4 4.62405 11.5687 -8.18029
3 6.1654 8.899 -10.0681
4 6.1654 8.899 -8.18029
3 6.1654 10.6788 -7.55105
4 10.7895 9.78889 -10.6973
4 12.3308 12.4586 -10.6973
3 10.7895 11.5687 -10.0681
4 9.24811 12.4586 -10.6973
4 10.7895 11.5687 -8.18029
3 12.3308 8.899 -10.0681
4 12.3308 8.899 -8.18029
3 9.24811 8.899 -10.0681
3 9.24811 10.6788 -7.55105
4 9.24811 8.899 -8.18029
3 12.0193 10.4992 -7.94208
4 16.9549 9.78889 -10.6973
4 13.8722 9.78889 -10.6973
3 16.9549 11.5687 -10.0681
3 13.8722 11.5687 -10.0681
4 15.4135 12.4586 -10.6973
4 16.9549 11.5687 -8.18029
4 13.8722 11.5687 -8.18029
3 15.4135 8.899 -10.0681
3 15.4135 10.6788 -7.55105
4 15.4135 8.899 -8.18029
4 1.54135 15.1283 -10.6973
3 1.54135 16.9081 -10.0681
4 1.54135 16.9081 -8.18029
3 3.08271 14.2384 -10.0681
4 3.08271 14.2384 -8.18029
3 0 14.2384 -10.0681
3 1.54135 13.3485 -7.55105
3 0 16.0182 -7.55105
4 0 14.2384 -8.18029
3 3.08271 16.0182 -7.55105
1 6.12443 15.9406 -7.57397
4 7.70676 15.1283 -10.6973
4 4.2579 14.6616 -10.7613
3 7.70676 16.9081 -10.0681
3 4.62405 16.9081 -10.0681
4 7.70676 16.9081 -8.18029
4 4.62405 16.9081 -8.18029
3 6.1654 14.2384 -10.0681
3 8.10311 13.516 -7.21242
3 4.62405 13.3485 -7.55105
4 6.1654 14.2384 -8.18029
4 10.7895 15.1283 -10.6973
3 10.7895 16.9081 -10.0681
4 10.7895 16.9081 -8.18029
3 9.24811 14.2384 -10.0681
4 9.24811 14.2384 -8.18029
3 12.3308 14.2384 -10.0681
3 10.7895 13.3485 -7.55105
3 12.5242 16.3312 -7.86069
4 12.3308 14.2384 -8.18029
3 9.24811 16.0182 -7.55105
1 15.4095 16.0334 -7.49426
4 16.9549 15.1283 -10.6973
4 13.8722 15.1283 -10.6973
3 16.9549 16.9081 -10.0681
4 16.9549 16.9081 -8.18029
3 13.6578 16.7975 -10.4689
4 13.8722 16.9081 -8.18029
3 15.4135 14.2384 -10.0681
4 15.4135 14.2384 -8.18029
3 16.9549 13.3485 -7.55105
3 13.8722 13.3485 -7.55105
4 1.54135 20.4677 -10.6973
4 3.08271 17.798 -10.6973
3 0 19.5778 -10.0681
4 0 17.798 -10.6973
4 0 19.5778 -8.18029
3 3.08271 19.5778 -10.0681
3 1.54135 18.6879 -7.55105
4 3.08271 19.5778 -8.18029
4 7.70676 20.4677 -10.6973
4 4.62405 20.4677 -10.6973
3 6.1654 19.5778 -10.0681
4 6.1654 17.798 -10.6973
4 6.1654 19.5778 -8.18029
3 7.70676 18.6879 -7.55105
3 4.62405 18.6879 -7.55105
4 10.7895 20.4677 -10.6973
4 9.24811 17.798 -10.6973
3 12.3308 19.5778 -10.0681
4 12.3308 17.798 -10.6973
4 12.3308 19.5778 -8.18029
3 9.24811 19.5778 -10.0681
3 10.7895 18.6879 -7.55105
4 9.24811 19.5778 -8.18029
1 16.9964 18.6537 -7.55437
4 16.9549 20.4677 -10.6973
4 13.8722 20.4677 -10.6973
4 15.4135 17.798 -10.6973
3 15.4135 19.5778 -10.0681
3 13.8722 18.6879 -7.55105
4 15.4135 19.5778 -8.18029
2 1.43614 2.70026 -5.67748
2 3.10995 21.3386 -5.58696
1 18.4705 1.81179 -4.92902
2 0.0234839 21.2541 -5.60366
2 0.0457683 1.78584 -2.9624
1 3.06536 1.74132 -5.08261
1 1.48275 0.860924 -2.4074
1 3.04548 3.56138 -2.49647
2 3.09788 1.75528 -3.14673
1 18.4676 3.6095 -2.38686
2 7.76399 2.52357 -5.45328
2 4.52197 2.73012 -5.62617
1 6.17082 1.65217 -4.95542
2 6.1617 21.2982 -5.78906
2 6.12471 1.79065 -3.07035
1 7.71416 0.89512 -2.51541
1 4.50818 0.916905 -2.37677
1 6.16065 3.51843 -2.47342
2 10.8543 2.62886 -5.63511
2 9.26683 21.3389 -5.69482
1 12.4597 1.70411 -4.99097
2 12.3743 21.3167 -5.69237
2 12.3271 1.74789 -3.16803
1 9.27665 1.6667 -4.93156
1 10.8467 0.876761 -2.51097
1 9.24942 3.5765 -2.52803
2 9.36297 1.69918 -3.10046
1 12.3757 3.5145 -2.49179
2 16.9778 2.68875 -5.60783
2 14.0125 2.64935 -5.63653
2 15.4255 0.0033821 -5.70953
1 15.4686 1.74425 -4.92464
1 16.862 0.911209 -2.37647
1 13.8457 0.838945 -2.37429
1 15.46 3.56433 -2.38513
2 15.3925 1.78984 -3.129
2 1.58671 7.94353 -5.55114
2 0.00598989 5.38216 -5.56138
1 1.47709 4.48433 -4.9132
1 3.10453 6.98197 -4.99659
2 3.04261 5.2664 -5.67661
2 1.46395 4.46425 -3.02625
2 3.17225 6.99811 -3.10119
1 0.0493486 7.1936 -4.99831
1 1.57215 6.23778 -2.4611
2 0.0844937 7.12481 -3.0293
2 7.71017 7.8587 -5.69065
2 4.58993 7.88986 -5.68271
2 6.10425 5.32182 -5.62882
1 7.67628 4.35522 -4.93192
2 7.64142 4.55337 -3.18434
1 4.59803 4.43399 -5.01359
2 4.63948 4.51359 -3.06047
1 6.174 7.04162 -4.99309
1 7.6424 6.20652 -2.4398
1 4.66066 6.22928 -2.4778
2 6.18377 7.04636 -3.10001
2 10.8317 8.0456 -5.68624
2 12.3381 5.3146 -5.62538
1 10.8035 4.48364 -5.0386
1 9.2711 7.1709 -4.96953
2 9.2212 5.32334 -5.66465
2 10.7363 4.48546 -3.18364
2 9.1287 7.08028 -2.97828
1 12.2544 7.07765 -5.00097
1 10.6611 6.1899 -2.51169
2 12.1876 7.10245 -3.10677
2 16.9781 8.07644 -5.59998
2 13.7961 8.13769 -5.56709
1 16.8973 4.50162 -5.0106
1 13.9176 4.44599 -4.94971
1 15.4745 7.19518 -5.01335
2 15.5065 5.47406 -5.71243
2 16.9215 4.47115 -3.08207
2 13.964 4.36329 -3.04383
2 15.4074 7.16257 -3.0097
1 16.9367 6.27576 -2.5303
1 13.9234 6.14522 -2.49553
2 3.23041 10.3942 -5.61412
1 1.5484 9.77007 -5.04316
1 18.4719 12.4684 -5.02592
2 18.4774 10.7909 -5.64474
2 1.12578 9.32985 -3.40258
2 18.4951 12.3786 -3.19056
1 3.02533 12.4499 -4.98949
1 1.60015 11.5219 -2.47759
2 3.14167 12.3486 -3.08373
1 0.0269706 8.94035 -2.37719
1 3.0941 8.85953 -2.4833
1 7.68692 9.7994 -5.01362
1 4.591 9.66642 -5.01879
1 6.15184 12.4094 -5.04757
2 6.17396 10.5967 -5.74559
2 7.55415 9.72979 -3.15383
2 4.58334 9.79395 -3.26565
2 6.33876 12.4651 -3.09185
1 7.71192 11.6065 -2.42836
1 4.72155 11.5747 -2.4295
1 6.08346 8.90896 -2.47813
2 9.31029 10.6106 -5.74324
1 10.8434 9.80269 -4.96971
1 12.3667 12.4598 -5.09061
2 12.4084 10.7179 -5.67129
2 10.7579 9.84581 -3.12293
2 12.3405 12.3788 -3.16443
1 9.22358 12.5085 -4.93053
1 10.7838 11.6419 -2.49771
2 9.30935 12.3985 -3.12103
1 12.2387 8.95088 -2.43561
1 9.16939 8.88275 -2.5328
2 15.4135 10.6655 -5.74158
1 16.8585 9.85693 -4.9769
2 17.0163 9.76102 -3.06959
1 13.836 9.83752 -5.02374
2 13.8324 9.82216 -3.10532
1 15.3442 12.4987 -5.07017
1 16.9606 11.5568 -2.51607
1 13.8757 11.5752 -2.46364
2 15.4268 12.5324 -3.02936
1 15.3285 8.99086 -2.44838
2 1.56798 13.3544 -5.60312
2 18.4483 15.9777 -5.51175
1 1.5376 15.0984 -4.9489
2 3.08866 15.8957 -5.64193
2 1.55165 15.1445 -2.94717
1 1.50599 16.8673 -2.46907
1 3.19493 14.2304 -2.37012
1 18.4043 14.204 -2.48016
2 7.67771 13.3514 -5.66779
2 4.56844 13.2697 -5.63949
2 6.19749 15.9474 -5.55072
1 7.66622 15.0654 -4.81923
2 7.63994 15.1804 -3.05534
1 4.63208 15.0022 -5.00064
2 4.64797 15.2566 -3.05899
1 7.79149 16.9125 -2.48571
1 4.40743 17.1669 -2.02431
1 6.20583 14.2026 -2.36602
2 10.8116 13.4046 -5.71919
2 12.3562 15.8949 -5.64097
1 10.6581 15.1631 -4.98351
2 9.11534 16.0301 -5.75855
2 10.6869 15.1247 -2.94796
1 10.803 16.8752 -2.50073
1 9.24151 14.1743 -2.39084
1 12.2848 14.2456 -2.41703
2 16.8596 13.3665 -5.5679
2 13.8339 13.2469 -5.70032
1 16.8954 15.1308 -4.97125
1 13.7702 15.0574 -4.97179
2 15.3597 16.0547 -5.48846
2 16.9764 15.0326 -3.04772
2 13.7287 15.0321 -2.96288
1 16.9085 16.8846 -2.38088
1 13.8219 16.9052 -2.42688
1 15.3522 14.2839 -2.26978
2 1.45588 18.6974 -5.63674
1 1.62665 20.4721 -4.96617
2 1.55749 20.4732 -3.07557
1 2.9798 17.7941 -5.05694
2 3.11256 17.7678 -3.20941
1 18.4143 17.8241 -4.88486
1 18.4796 19.5855 -2.43536
2 18.4882 17.8681 -3.12136
1 3.04938 19.4964 -2.5097
2 7.66189 18.54 -5.65096
2 4.50335 18.5443 -5.65477
1 7.61646 20.4017 -5.04984
1 4.574 20.428 -5.01172
2 7.86753 20.481 -3.00927
2 4.49207 20.3858 -3.08376
1 6.04658 17.7256 -5.03743
1 6.19895 19.5558 -2.5509
2 6.22266 17.7288 -3.08463
2 10.7977 18.6761 -5.631
1 10.8864 20.4176 -5.04504
2 10.9472 20.4618 -3.09025
1 9.22397 17.8519 -5.10696
2 9.31351 17.87 -3.00227
1 12.244 17.7074 -5.01187
1 12.418 19.6171 -2.47475
2 12.3042 17.8334 -3.10481
1 9.40551 19.6081 -2.46805
2 16.6225 18.928 -5.48399
2 13.9117 18.484 -5.63619
1 16.9299 20.5068 -4.9563
2 16.9222 20.5377 -3.14604
1 13.874 20.4374 -4.98759
2 13.8403 20.4975 -3.16023
1 15.4705 17.8261 -4.99031
2 15.2574 17.7586 -3.06684
1 15.3879 19.6229 -2.49882
2 1.50395 0.966192 -0.355081
2 3.00619 3.43894 -0.555516
1 1.45788 2.67284 0.136946
2 18.4656 3.55747 -0.324272
1 3.0029 21.2433 0.170895
1 18.4116 0.0318269 0.161049
2 7.69013 0.889223 -0.537997
2 4.51387 0.751027 -0.520297
1 7.71599 2.66607 -0.0590492
1 4.65533 2.58254 0.136191
2 6.20827 3.60401 -0.480096
1 6.19616 21.2223 0.0526157
2 10.8562 0.868372 -0.548629
2 9.30302 3.45248 -0.575934
1 10.918 2.61058 -0.0103298
2 12.4391 3.67284 -0.487345
1 9.32783 21.3315 0.0265797
1 12.3348 21.3154 0.0506826
2 16.9478 0.931958 -0.26915
2 13.9258 0.733571 -0.463544
2 15.5119 3.68591 -0.378096
1 16.9615 2.63049 0.257098
1 13.8968 2.80197 0.0222001
1 15.3678 21.3049 0.0885889
2 1.59121 6.23437 -0.473451
1 1.5199 8.10486 0.171892
1 18.4663 5.51966 0.00579921
1 3.13579 5.23932 -0.000634288
2 7.58199 6.18873 -0.397185
2 4.61921 6.18319 -0.478918
1 7.73404 8.07332 -0.0685937
1 4.54458 7.92905 0.0241029
1 6.15269 5.35932 0.129667
2 10.8058 6.20483 -0.488794
1 10.702 7.94936 -0.0830615
1 12.2772 5.40529 0.0492328
1 9.23781 5.24837 -0.0895856
2 16.9759 6.40017 -0.523106
2 13.8672 6.25243 -0.439139
1 16.8881 8.10275 0.0589284
1 13.8258 8.0494 -0.0362148
1 15.4489 5.39982 0.0104507
2 1.55667 11.5705 -0.583545
2 0.0162121 8.92878 -0.553582
1 3.1055 10.6489 0.0126556
2 3.05798 8.93036 -0.500604
1 4.29967e-05 10.7543 0.048961
2 7.59074 11.6367 -0.526761
2 4.81275 11.5062 -0.502749
2 6.10703 9.00532 -0.562281
1 6.22207 10.6764 0.152561
2 10.754 11.5847 -0.591791