579
Atoms. Timestep: 0
3 1.54135 2.6697 -13.2143
4 3.08271 8.88179e-16 -15.1021
3 3.08271 8.88179e-16 -13.2143
4 0 0 -15.1021
4 0 1.7798 -12.5851
3 0 0 -13.2143
4 3.08271 1.7798 -12.5851
3 7.70676 2.6697 -13.2143
3 4.62405 2.6697 -13.2143
4 6.1654 0 -15.1021
4 6.1654 1.7798 -12.5851
3 6.1654 0 -13.2143
3 10.7895 2.6697 -13.2143
3 9.24811 0 -13.2143
4 12.3308 0 -15.1021
4 12.3308 1.7798 -12.5851
3 12.3308 0 -13.2143
4 9.24811 1.7798 -12.5851
3 16.9549 2.6697 -13.2143
4 13.8722 2.6697 -15.1021
3 13.8722 2.6697 -13.2143
4 15.4135 8.88179e-16 -15.1021
3 15.4135 0 -13.2143
4 15.4135 1.7798 -12.5851
3 1.54135 8.0091 -13.2143
3 0 5.3394 -13.2143
4 1.54135 4.44949 -12.5851
4 3.08271 7.11919 -12.5851
3 3.08271 5.3394 -13.2143
4 0 7.11919 -12.5851
3 7.70676 8.0091 -13.2143
3 4.62405 8.0091 -13.2143
3 6.1654 5.3394 -13.2143
4 7.70676 4.44949 -12.5851
4 4.62405 4.44949 -12.5851
4 6.1654 7.11919 -12.5851
3 10.7895 8.0091 -13.2143
3 12.3308 5.3394 -13.2143
4 10.7895 4.44949 -12.5851
4 9.24811 7.11919 -12.5851
3 9.24811 5.3394 -13.2143
4 12.3308 7.11919 -12.5851
3 16.9549 8.0091 -13.2143
3 13.8722 8.0091 -13.2143
4 16.9549 4.44949 -12.5851
4 13.8722 4.44949 -12.5851
4 15.4135 7.11919 -12.5851
3 15.4135 5.3394 -13.2143
4 3.08271 10.6788 -15.1021
3 3.08271 10.6788 -13.2143
4 0 10.6788 -15.1021
4 1.54135 9.78889 -12.5851
4 0 12.4586 -12.5851
3 0 10.6788 -13.2143
4 3.08271 12.4586 -12.5851
4 6.1654 10.6788 -15.1021
4 7.70676 9.78889 -12.5851
4 4.62405 9.78889 -12.5851
4 6.1654 12.4586 -12.5851
3 6.1654 10.6788 -13.2143
4 9.24811 10.6788 -15.1021
3 9.24811 10.6788 -13.2143
4 10.7895 9.78889 -12.5851
4 12.3308 12.4586 -12.5851
3 12.3308 10.6788 -13.2143
4 9.24811 12.4586 -12.5851
3 15.4135 10.6788 -13.2143
4 16.9549 9.78889 -12.5851
4 13.8722 9.78889 -12.5851
4 15.4135 12.4586 -12.5851
4 1.54135 13.3485 -15.1021
3 1.54135 13.3485 -13.2143
3 0 16.0182 -13.2143
4 1.54135 15.1283 -12.5851
3 3.08271 16.0182 -13.2143
4 7.70676 13.3485 -15.1021
3 7.70676 13.3485 -13.2143
3 4.62405 13.3485 -13.2143
3 6.1654 16.0182 -13.2143
4 7.70676 15.1283 -12.5851
4 4.62405 15.1283 -12.5851
3 10.7895 13.3485 -13.2143
3 12.3308 16.0182 -13.2143
4 10.7895 15.1283 -12.5851
3 9.24811 16.0182 -13.2143
3 16.9549 13.3485 -13.2143
3 13.8722 13.3485 -13.2143
4 16.9549 15.1283 -12.5851
4 13.8722 15.1283 -12.5851
3 15.4135 16.0182 -13.2143
3 1.54135 18.6879 -13.2143
4 1.54135 20.4677 -12.5851
4 3.08271 17.798 -12.5851
4 0 17.798 -12.5851
3 7.70676 18.6879 -13.2143
3 4.62405 18.6879 -13.2143
4 7.70676 20.4677 -12.5851
4 4.62405 20.4677 -12.5851
4 6.1654 17.798 -12.5851
3 10.7895 18.6879 -13.2143
4 10.7895 20.4677 -12.5851
4 9.24811 17.798 -12.5851
4 12.3308 17.798 -12.5851
3 16.9549 18.6879 -13.2143
3 13.8722 18.6879 -13.2143
4 16.9549 20.4677 -12.5851
4 13.8722 20.4677 -12.5851
4 15.4135 17.798 -12.5851
4 0 0 -7.55105
4 3.08271 0 -7.55105
3 0 3.55961 -8.18029
4 1.54135 2.6697 -7.55105
4 0 3.55961 -10.0681
3 0 1.7798 -10.6973
4 1.54135 0.8899 -10.0681
4 3.08271 3.55961 -10.0681
3 3.08271 1.7798 -10.6973
3 1.54135 0.8899 -8.18029
3 3.08271 3.55961 -8.18029
4 6.1654 0 -7.55105
3 6.1654 3.55961 -8.18029
4 4.62405 2.6697 -7.55105
4 7.70676 2.6697 -7.55105
3 6.1654 1.7798 -10.6973
4 7.70676 0.8899 -10.0681
3 7.70676 0.8899 -8.18029
4 4.62405 0.8899 -10.0681
3 4.62405 0.8899 -8.18029
4 6.1654 3.55961 -10.0681
4 12.3308 4.44088e-16 -7.55105
4 9.24811 4.44088e-16 -7.55105
3 12.3308 1.7798 -10.6973
4 10.7895 0.8899 -10.0681
4 9.24811 3.55961 -10.0681
3 9.24811 1.7798 -10.6973
3 10.7895 0.8899 -8.18029
3 9.24811 3.55961 -8.18029
4 12.3308 3.55961 -10.0681
4 10.7895 2.6697 -7.55105
3 12.3308 3.55961 -8.18029
4 15.4135 0 -7.55105
4 16.9549 0.8899 -10.0681
4 13.8722 0.8899 -10.0681
4 15.4135 3.55961 -10.0681
3 15.4135 1.7798 -10.6973
3 16.9549 0.8899 -8.18029
3 13.8722 0.8899 -8.18029
3 15.4135 3.55961 -8.18029
4 16.9549 2.6697 -7.55105
4 13.8722 2.6697 -7.55105
4 3.08271 5.3394 -7.55105
4 0 5.3394 -7.55105
3 1.54135 4.44949 -10.6973
3 3.08271 7.11919 -10.6973
4 1.54135 6.2293 -10.0681
3 0 7.11919 -10.6973
3 1.54135 6.2293 -8.18029
4 1.54135 8.0091 -7.55105
4 6.1654 5.3394 -7.55105
3 7.70676 4.44949 -10.6973
3 4.62405 4.44949 -10.6973
4 7.70676 6.2293 -10.0681
4 4.62405 6.2293 -10.0681
3 6.1654 7.11919 -10.6973
3 7.70676 6.2293 -8.18029
3 4.62405 6.2293 -8.18029
4 7.70676 8.0091 -7.55105
4 4.62405 8.0091 -7.55105
4 9.24811 5.3394 -7.55105
3 10.7895 4.44949 -10.6973
3 9.24811 7.11919 -10.6973
4 10.7895 6.2293 -10.0681
3 12.3308 7.11919 -10.6973
3 10.7895 6.2293 -8.18029
4 10.7895 8.0091 -7.55105
4 12.3308 5.3394 -7.55105
3 16.9549 4.44949 -10.6973
3 13.8722 4.44949 -10.6973
3 15.4135 7.11919 -10.6973
4 16.9549 6.2293 -10.0681
3 16.9549 6.2293 -8.18029
4 13.8722 6.2293 -10.0681
3 13.8722 6.2293 -8.18029
4 16.9549 8.0091 -7.55105
4 13.8722 8.0091 -7.55105
4 15.4135 5.3394 -7.55105
3 1.54135 9.78889 -10.6973
3 0 12.4586 -10.6973
4 1.54135 11.5687 -10.0681
3 3.08271 12.4586 -10.6973
3 1.54135 11.5687 -8.18029
4 0 8.899 -10.0681
3 0 8.899 -8.18029
4 3.08271 8.899 -10.0681
4 3.08271 10.6788 -7.55105
3 3.08271 8.899 -8.18029
4 0 10.6788 -7.55105
3 7.70676 9.78889 -10.6973
3 4.62405 9.78889 -10.6973
3 6.1654 12.4586 -10.6973
4 7.70676 11.5687 -10.0681
3 7.70676 11.5687 -8.18029
4 4.62405 11.5687 -10.0681
3 4.62405 11.5687 -8.18029
4 6.1654 8.899 -10.0681
3 6.1654 8.899 -8.18029
4 6.1654 10.6788 -7.55105
3 10.7895 9.78889 -10.6973
3 12.3308 12.4586 -10.6973
4 10.7895 11.5687 -10.0681
3 9.24811 12.4586 -10.6973
3 10.7895 11.5687 -8.18029
4 12.3308 8.899 -10.0681
3 12.3308 8.899 -8.18029
4 9.24811 8.899 -10.0681
4 9.24811 10.6788 -7.55105
3 9.24811 8.899 -8.18029
4 12.3308 10.6788 -7.55105
3 16.9549 9.78889 -10.6973
3 13.8722 9.78889 -10.6973
4 16.9549 11.5687 -10.0681
4 13.8722 11.5687 -10.0681
3 15.4135 12.4586 -10.6973
3 16.9549 11.5687 -8.18029
3 13.8722 11.5687 -8.18029
4 15.4135 8.899 -10.0681
4 15.4135 10.6788 -7.55105
3 15.4135 8.899 -8.18029
3 1.54135 15.1283 -10.6973
4 1.54135 16.9081 -10.0681
3 1.54135 16.9081 -8.18029
4 3.08271 14.2384 -10.0681
3 3.08271 14.2384 -8.18029
4 0 14.2384 -10.0681
4 1.54135 13.3485 -7.55105
4 0 16.0182 -7.55105
3 0 14.2384 -8.18029
4 3.08271 16.0182 -7.55105
2 6.17287 16.0026 -7.612
3 7.70676 15.1283 -10.6973
3 4.62405 15.1283 -10.6973
4 7.70676 16.9081 -10.0681
4 4.62405 16.9081 -10.0681
3 7.70676 16.9081 -8.18029
3 4.62405 16.9081 -8.18029
4 6.1654 14.2384 -10.0681
4 7.70676 13.3485 -7.55105
4 4.62405 13.3485 -7.55105
3 6.1654 14.2384 -8.18029
3 10.7895 15.1283 -10.6973
4 10.7895 16.9081 -10.0681
3 10.7895 16.9081 -8.18029
4 9.24811 14.2384 -10.0681
3 9.24811 14.2384 -8.18029
4 12.3308 14.2384 -10.0681
4 10.7895 13.3485 -7.55105
4 12.3308 16.0182 -7.55105
3 12.3308 14.2384 -8.18029
4 9.24811 16.0182 -7.55105
2 15.394 16.046 -7.62807
3 16.9549 15.1283 -10.6973
3 13.8722 15.1283 -10.6973
4 16.9549 16.9081 -10.0681
3 16.9549 16.9081 -8.18029
4 13.8722 16.9081 -10.0681
3 13.8722 16.9081 -8.18029
4 15.4135 14.2384 -10.0681
3 15.4135 14.2384 -8.18029
4 16.9549 13.3485 -7.55105
4 13.8722 13.3485 -7.55105
3 1.54135 20.4677 -10.6973
3 3.08271 17.798 -10.6973
4 0 19.5778 -10.0681
3 0 17.798 -10.6973
3 0 19.5778 -8.18029
4 3.08271 19.5778 -10.0681
4 1.54135 18.6879 -7.55105
3 3.08271 19.5778 -8.18029
3 7.70676 20.4677 -10.6973
3 4.62405 20.4677 -10.6973
4 6.1654 19.5778 -10.0681
3 6.1654 17.798 -10.6973
3 6.1654 19.5778 -8.18029
4 7.70676 18.6879 -7.55105
4 4.62405 18.6879 -7.55105
3 10.7895 20.4677 -10.6973
3 9.24811 17.798 -10.6973
4 12.3308 19.5778 -10.0681
3 12.3308 17.798 -10.6973
3 12.3308 19.5778 -8.18029
4 9.24811 19.5778 -10.0681
4 10.7895 18.6879 -7.55105
3 9.24811 19.5778 -8.18029
2 16.9833 18.685 -7.5631
3 16.9549 20.4677 -10.6973
3 13.8722 20.4677 -10.6973
3 15.4135 17.798 -10.6973
4 15.4135 19.5778 -10.0681
4 13.8722 18.6879 -7.55105
3 15.4135 19.5778 -8.18029
1 1.52893 2.67959 -5.66027
1 3.11271 0.0819598 -5.69784
2 18.4516 1.86243 -5.06999
1 0.000881265 0.0218524 -5.65607
1 0.00695952 1.82376 -3.19095
2 3.02663 1.79252 -5.07714
2 1.43896 0.848255 -2.55422
2 3.05576 3.52509 -2.58288
1 3.03018 1.71817 -3.1606
2 18.4142 3.58989 -2.53138
1 7.65257 2.69825 -5.64208
1 4.53536 2.7008 -5.68851
2 6.12129 1.85222 -4.96856
1 6.17685 0.0583385 -5.66673
1 6.17086 1.86568 -3.14477
2 7.75045 1.03798 -2.45219
2 4.60892 0.905237 -2.53184
2 6.20086 3.67054 -2.53939
1 10.7066 2.73411 -5.66477
1 9.27583 21.348 -5.69766
2 12.2957 1.8015 -5.10433
1 12.2739 0.0180846 -5.68195
1 12.3405 1.795 -3.1709
2 9.12392 1.72515 -5.08533
2 10.7594 0.886195 -2.54818
2 9.24787 3.61687 -2.56992
1 9.25049 1.84028 -3.17911
2 12.3386 3.5504 -2.54241
1 16.9537 2.65684 -5.71847
1 13.8532 2.63764 -5.73608
1 15.4386 21.308 -5.6496
2 15.4333 1.72566 -5.11508
2 16.8973 1.01785 -2.53933
2 13.8973 0.921892 -2.58252
2 15.2639 3.50794 -2.52268
1 15.3719 1.83646 -3.24976
1 1.47948 8.02155 -5.6834
1 18.4888 5.34529 -5.6767
2 1.5203 4.43441 -5.03123
2 3.00619 7.20257 -5.04733
1 3.08987 5.36607 -5.61723
1 1.48158 4.45071 -3.19077
1 3.06505 7.15855 -3.20521
2 18.461 7.12376 -5.0663
2 1.51532 6.16213 -2.57225
1 0.00777444 7.06137 -3.22795
1 7.68634 8.05403 -5.65383
1 4.61634 8.04936 -5.70874
1 6.1885 5.37126 -5.71098
2 7.69193 4.44883 -5.01257
1 7.76186 4.47232 -3.18098
2 4.63334 4.52206 -5.08146
1 4.58207 4.40052 -3.19201
2 6.11982 7.15776 -5.0724
2 7.72237 6.19588 -2.60665
2 4.51502 6.19058 -2.57155
1 6.07682 7.08784 -3.15549
1 10.7258 8.03936 -5.64387
1 12.2797 5.29816 -5.64362
2 10.6751 4.50998 -5.06869
2 9.27326 7.08124 -4.98871
1 9.20557 5.33972 -5.66057
1 10.7932 4.49118 -3.08382
1 9.25451 7.13461 -3.11417
2 12.3447 7.05091 -4.97602
2 10.7985 6.24771 -2.52302
1 12.3137 7.1194 -3.09218
1 16.9216 8.05352 -5.71847
1 13.8595 7.97247 -5.67951
2 17 4.40455 -4.99834
2 13.8896 4.4481 -5.08367
2 15.4441 7.11097 -5.14374
1 15.4187 5.36725 -5.68697
1 16.8751 4.42288 -3.11448
1 13.8182 4.4346 -3.19711
1 15.4281 7.18123 -3.24402
2 16.8779 6.26971 -2.53295
2 13.9337 6.31031 -2.52033
1 3.01671 10.6397 -5.63199
2 1.48863 9.78338 -5.15876
2 0.00896212 12.5456 -4.97617
1 18.4458 10.6766 -5.71074
1 1.523 9.74361 -3.16398
1 0.00214839 12.4807 -3.11756
2 3.04881 12.4835 -5.10412
2 1.50192 11.5282 -2.51459
1 3.05739 12.4245 -3.10795
2 18.4301 8.82218 -2.52214
2 3.12821 8.90586 -2.6059
2 7.69936 9.77659 -5.02842
2 4.65541 9.78507 -5.03516
2 6.15082 12.4167 -5.01314
1 6.11178 10.6586 -5.70056
1 7.62124 9.81343 -3.17485
1 4.62463 9.81356 -3.18056
1 6.1179 12.4919 -3.16981
2 7.65235 11.5487 -2.48324
2 4.60637 11.5875 -2.51024
2 6.10789 8.89001 -2.56174
1 9.20592 10.6988 -5.69878
2 10.7252 9.84115 -5.04733
2 12.3037 12.4795 -5.06431
1 12.2763 10.7256 -5.64951
1 10.7463 9.7862 -3.13779
1 12.3456 12.5051 -3.20772
2 9.17544 12.5322 -5.0148
2 10.739 11.5605 -2.59792
1 9.17828 12.4658 -3.15054
2 12.2762 8.93582 -2.50927
2 9.247 8.864 -2.4302
1 15.4233 10.6618 -5.69784
2 16.9114 9.82233 -5.04537
1 16.9564 9.84102 -3.16322
2 13.7864 9.81347 -5.03157
1 13.773 9.87274 -3.14779
2 15.3865 12.4517 -5.0557
2 16.8456 11.5848 -2.41712
2 13.7798 11.6631 -2.46385
1 15.3676 12.4364 -3.12994
2 15.4437 9.04928 -2.44651
1 1.50078 13.3986 -5.67374
1 18.4486 16.0654 -5.71391
2 1.49065 15.206 -4.95757
1 3.07594 15.9702 -5.65084
1 1.55392 15.1327 -3.09345
2 1.5148 16.9456 -2.49272
2 3.13113 14.2553 -2.5978
2 18.486 14.2151 -2.52516
1 7.69988 13.3613 -5.65175
1 4.6415 13.3239 -5.64051
1 6.2047 16.0285 -5.68959
2 7.70902 15.1271 -4.99312
1 7.68398 15.1677 -3.09342
2 4.70612 15.1606 -5.03084
1 4.63976 15.1445 -3.17355
2 7.7339 16.9478 -2.47696
2 4.73215 16.9538 -2.55117
2 6.18891 14.2809 -2.59095
1 10.7653 13.3822 -5.60481
1 12.374 16.0055 -5.70491
2 10.7953 15.1219 -5.05935
1 9.24406 16.008 -5.60294
1 10.8017 15.0954 -3.18271
2 10.7946 16.9323 -2.56219
2 9.24389 14.2122 -2.57899
2 12.3622 14.2302 -2.51245
1 16.9483 13.3176 -5.67253
1 13.8839 13.3726 -5.75124
2 16.9134 15.1152 -5.05262
2 13.7717 15.0533 -5.12568
1 15.351 15.9927 -5.70307
1 16.9397 15.1497 -3.16573
1 13.8436 15.0905 -3.23143
2 16.9314 16.9148 -2.5434
2 13.8744 16.8478 -2.6361
2 15.3709 14.2059 -2.58318
1 1.50957 18.7237 -5.62704
2 1.63337 20.4991 -5.07195
1 1.51692 20.4836 -3.1023
2 3.07988 17.7233 -5.01529
1 3.0843 17.8153 -3.11846
2 18.4521 17.7733 -5.01906
2 18.3938 19.5836 -2.50296
1 18.4743 17.8417 -3.16914
2 3.11702 19.5677 -2.45321
1 7.75478 18.7527 -5.71355
1 4.61934 18.7752 -5.72116
2 7.77888 20.5831 -5.00157
2 4.60922 20.5771 -5.04274
1 7.7442 20.5121 -3.18905
1 4.65132 20.5262 -3.14652
2 6.22498 17.8443 -5.14731
2 6.18935 19.605 -2.64676
1 6.20524 17.8521 -3.29196
1 10.8145 18.6592 -5.63903
2 10.8409 20.45 -5.07766
1 10.8082 20.4938 -3.14142
2 9.24274 17.7888 -5.01604
1 9.24221 17.9283 -3.18171
2 12.3482 17.7945 -5.02713
2 12.3629 19.642 -2.44011
1 12.3607 17.7826 -3.12532
2 9.19795 19.728 -2.51136
1 16.9374 18.7208 -5.68322
1 13.7994 18.7451 -5.67766
2 16.9792 20.5036 -5.03057
1 16.8799 20.5778 -3.13396
2 13.8671 20.4981 -4.97756
1 13.882 20.4883 -3.13504
2 15.2998 17.7742 -5.1326
1 15.378 17.7312 -3.21699
2 15.4843 19.5827 -2.56458
1 1.50413 0.922706 -0.667905
1 2.9987 3.5145 -0.678507
2 1.45364 2.6574 -0.371663
1 18.3 3.43086 -0.640601
2 3.11245 0.0891421 -0.391718
2 18.4479 0.105278 -0.511266
1 7.74081 1.19678 -0.506101
1 4.65082 0.973124 -0.642926
2 4.58209 2.78832 -0.319742
1 6.05923 3.97529 -0.629908
2 6.22867 0.11725 -0.421167
1 10.8997 0.94407 -0.659207
1 9.23522 3.47403 -0.590492
2 10.9098 2.65206 -0.44083
1 12.4838 3.66603 -0.629244
2 9.2709 0.0937829 -0.154736
2 12.4283 0.0767498 -0.354265
1 16.9553 1.19333 -0.56799
1 13.8919 0.905481 -0.683672
1 15.0453 3.20317 -0.555304
2 15.4298 0.0729789 -0.499728
1 1.39457 6.11615 -0.610004
2 1.39834 7.915 -0.307962
2 18.2999 5.26736 -0.347137
2 2.9674 5.28652 -0.202338
1 7.63056 6.0986 -0.619941
1 4.56352 6.09358 -0.527124
2 7.66383 7.95199 -0.355564
2 4.61383 7.92676 -0.367736
1 10.8323 6.30013 -0.638124
2 10.8728 8.07229 -0.188806
2 12.4619 5.38122 -0.429624
2 9.34216 5.32191 -0.283164
1 16.7717 6.42564 -0.596261
1 14.1433 6.33451 -0.586807
2 14.0461 8.13229 -0.272804
1 1.51909 11.5227 -0.658995
1 18.1749 8.74884 -0.512535
2 3.01168 10.5753 -0.413465
1 3.05291 8.76272 -0.669808
2 18.4321 10.6585 -0.323729
1 7.6974 11.554 -0.601607
1 4.60339 11.5599 -0.632838
1 6.13053 8.84644 -0.601335
2 6.14346 10.6374 -0.476864
1 10.873 11.6053 -0.725988
1 12.4803 9.02608 -0.504168
2 9.28259 10.7194 -0.385587
1 9.24295 8.88879 -0.517217
1 16.8265 11.4675 -0.524345
1 13.3093 11.55 -0.557086
1 15.6327 9.17699 -0.531292
1 1.54299 16.9685 -0.547119
1 3.13831 14.2515 -0.730609
2 1.52104 13.3244 -0.440951
2 18.4708 16.0702 -0.210342
1 18.3984 14.2702 -0.575299
2 3.15505 16.0091 -0.486016
1 7.73567 16.921 -0.623566
1 4.72244 16.9466 -0.723239
2 7.70536 13.4229 -0.32542
2 4.63264 13.3798 -0.393289
2 6.18456 16.0157 -0.268757
1 6.16002 14.2582 -0.691676
1 10.7518 16.8651 -0.579679
1 9.26986 14.2904 -0.66857
2 10.8279 13.3697 -0.379032
2 12.365 16.0319 -0.322339
1 12.5564 14.1882 -0.537091
2 9.23745 15.9826 -0.318231
1 16.9178 16.8601 -0.676423
1 13.8898 16.8978 -0.674097
1 15.2457 14.2253 -0.66709
2 16.757 13.3105 -0.318564
2 15.3919 15.9781 -0.425819
1 18.4547 19.6359 -0.673644
2 1.49126 18.8138 -0.346925
1 3.14687 19.6763 -0.58868
1 6.28788 19.6376 -0.672859
2 7.77485 18.7126 -0.328138
2 4.6746 18.7161 -0.409931
1 12.4308 19.6124 -0.5592
2 10.7736 18.7453 -0.295427
1 9.26422 19.6745 -0.517337
2 16.9686 18.6474 -0.341187
2 13.9802 18.6589 -0.32098
1 15.441 19.5262 -0.706808
579
Atoms. Timestep: 10
3 1.54135 2.6697 -13.2143
4 3.08271 8.88179e-16 -15.1021
3 3.08271 8.88179e-16 -13.2143
4 0 0 -15.1021
4 0 1.7798 -12.5851
3 0 0 -13.2143
4 3.21748 2.10354 -12.3936
3 7.70676 2.6697 -13.2143
3 4.62405 2.6697 -13.2143
4 6.1654 0 -15.1021
4 6.1654 1.7798 -12.5851
3 6.1654 0 -13.2143
3 10.7895 2.6697 -13.2143
3 9.24811 0 -13.2143
4 12.3308 0 -15.1021
4 12.3308 1.7798 -12.5851
3 12.3308 0 -13.2143
4 9.24811 1.7798 -12.5851
3 16.9549 2.6697 -13.2143
4 14.144 2.31132 -14.8428
3 13.8722 2.6697 -13.2143
4 15.4135 8.88179e-16 -15.1021
3 15.4135 0 -13.2143
4 15.4135 1.7798 -12.5851
3 1.54135 8.0091 -13.2143
3 0 5.3394 -13.2143
4 1.54135 4.44949 -12.5851
4 3.08271 7.11919 -12.5851
3 3.08271 5.3394 -13.2143
4 0 7.11919 -12.5851
3 7.70676 8.0091 -13.2143
3 4.62405 8.0091 -13.2143
3 6.27357 4.95864 -12.7342
4 7.70676 4.44949 -12.5851
4 4.62405 4.44949 -12.5851
4 6.1654 7.11919 -12.5851
3 10.7895 8.0091 -13.2143
3 12.3308 5.3394 -13.2143
4 10.7895 4.44949 -12.5851
4 9.24811 7.11919 -12.5851
3 9.24811 5.3394 -13.2143
4 12.3308 7.11919 -12.5851
3 16.9549 8.0091 -13.2143
3 13.8722 8.0091 -13.2143
4 16.9549 4.44949 -12.5851
4 13.8722 4.44949 -12.5851
4 15.4135 7.11919 -12.5851
3 15.4135 5.3394 -13.2143
4 3.08271 10.6788 -15.1021
3 3.08271 10.6788 -13.2143
4 0 10.6788 -15.1021
4 1.54135 9.78889 -12.5851
4 0 12.4586 -12.5851
3 18.4941 10.5453 -13.2048
4 3.08271 12.4586 -12.5851
4 6.1654 10.6788 -15.1021
4 7.70676 9.78889 -12.5851
4 4.62405 9.78889 -12.5851
4 6.1654 12.4586 -12.5851
3 6.1654 10.6788 -13.2143
4 9.24811 10.6788 -15.1021
3 9.24811 10.6788 -13.2143
4 10.7895 9.78889 -12.5851
4 12.3308 12.4586 -12.5851
3 12.3308 10.6788 -13.2143
4 9.24811 12.4586 -12.5851
3 15.4135 10.6788 -13.2143
4 16.9549 9.78889 -12.5851
4 13.8722 9.78889 -12.5851
4 15.8124 12.8559 -12.2133
4 1.54135 13.3485 -15.1021
3 1.54135 13.3485 -13.2143
3 0 16.0182 -13.2143
4 1.54135 15.1283 -12.5851
3 3.08271 16.0182 -13.2143
4 7.70676 13.3485 -15.1021
3 7.70676 13.3485 -13.2143
3 4.62405 13.3485 -13.2143
3 6.1654 16.0182 -13.2143
4 7.70676 15.1283 -12.5851
4 4.62405 15.1283 -12.5851
3 11.1935 13.6644 -12.8483
3 12.3308 16.0182 -13.2143
4 10.7895 15.1283 -12.5851
3 9.24811 16.0182 -13.2143
3 16.9549 13.3485 -13.2143
3 13.8722 13.3485 -13.2143
4 16.9549 15.1283 -12.5851
4 13.8722 15.1283 -12.5851
3 15.4135 16.0182 -13.2143
3 1.54135 18.6879 -13.2143
4 1.54135 20.4677 -12.5851
4 3.08271 17.798 -12.5851
4 0 17.798 -12.5851
3 7.70676 18.6879 -13.2143
3 4.62405 18.6879 -13.2143
4 7.70676 20.4677 -12.5851
4 4.62405 20.4677 -12.5851
4 6.1654 17.798 -12.5851
3 10.7895 18.6879 -13.2143
4 10.7895 20.4677 -12.5851
4 9.24811 17.798 -12.5851
4 12.3308 17.798 -12.5851
3 16.9549 18.6879 -13.2143
3 13.8722 18.6879 -13.2143
4 16.9549 20.4677 -12.5851
4 13.8722 20.4677 -12.5851
4 15.4135 17.798 -12.5851
4 0 0 -7.55105
4 3.08271 0 -7.55105
3 0 3.55961 -8.18029
4 1.54135 2.6697 -7.55105
4 0 3.55961 -10.0681
3 0 1.7798 -10.6973
4 1.54135 0.8899 -10.0681
4 3.08271 3.55961 -10.0681
3 3.08271 1.7798 -10.6973
3 1.54135 0.8899 -8.18029
3 3.08271 3.55961 -8.18029
4 6.1654 0 -7.55105
3 6.1654 3.55961 -8.18029
4 4.1597 2.83785 -7.0692
4 7.70676 2.6697 -7.55105
3 6.1654 1.7798 -10.6973
4 7.70676 0.8899 -10.0681
3 7.70676 0.8899 -8.18029
4 4.62405 0.8899 -10.0681
3 4.62405 0.8899 -8.18029
4 6.1654 3.55961 -10.0681
4 12.3308 4.44088e-16 -7.55105
4 9.24811 4.44088e-16 -7.55105
3 12.3308 1.7798 -10.6973
4 10.7895 0.8899 -10.0681
4 9.24811 3.55961 -10.0681
3 9.24811 1.7798 -10.6973
3 10.7895 0.8899 -8.18029
3 9.24811 3.55961 -8.18029
4 12.3308 3.55961 -10.0681
4 10.7895 2.6697 -7.55105
3 12.3308 3.55961 -8.18029
4 15.4135 0 -7.55105
4 16.9549 0.8899 -10.0681
4 14.0146 0.967794 -10.2041
4 15.4135 3.55961 -10.0681
3 15.4135 1.7798 -10.6973
3 16.9549 0.8899 -8.18029
3 13.8722 0.8899 -8.18029
3 15.4135 3.55961 -8.18029
4 17.1898 2.26471 -7.63319
4 13.8722 2.6697 -7.55105
4 3.08271 5.3394 -7.55105
4 0 5.3394 -7.55105
3 1.54135 4.44949 -10.6973
3 3.08271 7.11919 -10.6973
4 1.54135 6.2293 -10.0681
3 0 7.11919 -10.6973
3 1.54135 6.2293 -8.18029
4 1.54135 8.0091 -7.55105
4 6.1654 5.3394 -7.55105
3 7.70676 4.44949 -10.6973
3 4.62405 4.44949 -10.6973
4 7.70676 6.2293 -10.0681
4 4.62405 6.2293 -10.0681
3 6.1654 7.11919 -10.6973
3 7.70676 6.2293 -8.18029
3 4.62405 6.2293 -8.18029
4 7.70676 8.0091 -7.55105
4 4.62405 8.0091 -7.55105
4 9.24811 5.3394 -7.55105
3 10.7895 4.44949 -10.6973
3 9.24811 7.11919 -10.6973
4 10.7895 6.2293 -10.0681
3 12.3308 7.11919 -10.6973
3 10.6045 5.75821 -8.65998
4 10.7895 8.0091 -7.55105
4 12.3308 5.3394 -7.55105
3 16.9549 4.44949 -10.6973
3 13.8722 4.44949 -10.6973
3 15.4135 7.11919 -10.6973
4 16.9549 6.2293 -10.0681
3 16.9549 6.2293 -8.18029
4 13.8722 6.2293 -10.0681
3 13.8722 6.2293 -8.18029
4 16.9549 8.0091 -7.55105
4 13.8722 8.0091 -7.55105
4 15.4135 5.3394 -7.55105
3 1.54135 9.78889 -10.6973
3 0 12.4586 -10.6973
4 1.54135 11.5687 -10.0681
3 3.08271 12.4586 -10.6973
3 1.54135 11.5687 -8.18029
4 0 8.899 -10.0681
3 0 8.899 -8.18029
4 3.08271 8.899 -10.0681
4 3.08271 10.6788 -7.55105
3 3.08271 8.899 -8.18029
4 0 10.6788 -7.55105
3 7.70676 9.78889 -10.6973
3 4.62405 9.78889 -10.6973
3 6.1654 12.4586 -10.6973
4 7.70676 11.5687 -10.0681
3 7.70676 11.5687 -8.18029
4 4.62405 11.5687 -10.0681
3 4.62405 11.5687 -8.18029
4 6.1654 8.899 -10.0681
3 6.1654 8.899 -8.18029
4 6.1654 10.6788 -7.55105
3 10.7895 9.78889 -10.6973
3 12.3308 12.4586 -10.6973
4 10.7895 11.5687 -10.0681
3 9.24811 12.4586 -10.6973
3 10.7895 11.5687 -8.18029
4 12.3308 8.899 -10.0681
3 12.3308 8.899 -8.18029
4 9.24811 8.899 -10.0681
4 9.24811 10.6788 -7.55105
3 9.24811 8.899 -8.18029
4 12.0193 10.4992 -7.94208
3 16.9549 9.78889 -10.6973
3 13.8722 9.78889 -10.6973
4 16.9549 11.5687 -10.0681
4 13.8722 11.5687 -10.0681
3 15.4135 12.4586 -10.6973
3 16.9549 11.5687 -8.18029
3 13.8722 11.5687 -8.18029
4 15.4135 8.899 -10.0681
4 15.4135 10.6788 -7.55105
3 15.4135 8.899 -8.18029
3 1.54135 15.1283 -10.6973
4 1.54135 16.9081 -10.0681
3 1.54135 16.9081 -8.18029
4 3.08271 14.2384 -10.0681
3 3.08271 14.2384 -8.18029
4 0 14.2384 -10.0681
4 1.54135 13.3485 -7.55105
4 0 16.0182 -7.55105
3 0 14.2384 -8.18029
4 3.08271 16.0182 -7.55105
2 6.17287 16.0026 -7.612
3 7.70676 15.1283 -10.6973
3 4.2579 14.6616 -10.7613
4 7.70676 16.9081 -10.0681
4 4.62405 16.9081 -10.0681
3 7.70676 16.9081 -8.18029
3 4.62405 16.9081 -8.18029
4 6.1654 14.2384 -10.0681
4 8.10311 13.516 -7.21242
4 4.62405 13.3485 -7.55105
3 6.1654 14.2384 -8.18029
3 10.7895 15.1283 -10.6973
4 10.7895 16.9081 -10.0681
3 10.7895 16.9081 -8.18029
4 9.24811 14.2384 -10.0681
3 9.24811 14.2384 -8.18029
4 12.3308 14.2384 -10.0681
4 10.7895 13.3485 -7.55105
4 12.5242 16.3312 -7.86069
3 12.3308 14.2384 -8.18029
4 9.24811 16.0182 -7.55105
2 15.394 16.046 -7.62807
3 16.9549 15.1283 -10.6973
3 13.8722 15.1283 -10.6973
4 16.9549 16.9081 -10.0681
3 16.9549 16.9081 -8.18029
4 13.6578 16.7975 -10.4689
3 13.8722 16.9081 -8.18029
4 15.4135 14.2384 -10.0681
3 15.4135 14.2384 -8.18029
4 16.9549 13.3485 -7.55105
4 13.8722 13.3485 -7.55105
3 1.54135 20.4677 -10.6973
3 3.08271 17.798 -10.6973
4 0 19.5778 -10.0681
3 0 17.798 -10.6973
3 0 19.5778 -8.18029
4 3.08271 19.5778 -10.0681
4 1.54135 18.6879 -7.55105
3 3.08271 19.5778 -8.18029
3 7.70676 20.4677 -10.6973
3 4.62405 20.4677 -10.6973
4 6.1654 19.5778 -10.0681
3 6.1654 17.798 -10.6973
3 6.1654 19.5778 -8.18029
4 7.70676 18.6879 -7.55105
4 4.62405 18.6879 -7.55105
3 10.7895 20.4677 -10.6973
3 9.24811 17.798 -10.6973
4 12.3308 19.5778 -10.0681
3 12.3308 17.798 -10.6973
3 12.3308 19.5778 -8.18029
4 9.24811 19.5778 -10.0681
4 10.7895 18.6879 -7.55105
3 9.24811 19.5778 -8.18029
2 16.9833 18.685 -7.5631
3 16.9549 20.4677 -10.6973
3 13.8722 20.4677 -10.6973
3 15.4135 17.798 -10.6973
4 15.4135 19.5778 -10.0681
4 13.8722 18.6879 -7.55105
3 15.4135 19.5778 -8.18029
1 1.52893 2.67959 -5.66027
1 3.11271 0.0819598 -5.69784
2 18.4516 1.86243 -5.06999
1 0.000881265 0.0218524 -5.65607
1 0.00695952 1.82376 -3.19095
2 3.02663 1.79252 -5.07714
2 1.43896 0.848255 -2.55422
2 3.05576 3.52509 -2.58288
1 3.03018 1.71817 -3.1606
2 18.4142 3.58989 -2.53138
1 7.65257 2.69825 -5.64208
1 4.53536 2.7008 -5.68851
2 6.12129 1.85222 -4.96856
1 6.17685 0.0583385 -5.66673
1 6.17086 1.86568 -3.14477
2 7.75045 1.03798 -2.45219
2 4.60892 0.905237 -2.53184
2 6.20086 3.67054 -2.53939
1 10.7066 2.73411 -5.66477
1 9.27583 21.348 -5.69766
2 12.2957 1.8015 -5.10433
1 12.2739 0.0180846 -5.68195
1 12.3405 1.795 -3.1709
2 9.12392 1.72515 -5.08533
2 10.7594 0.886195 -2.54818
2 9.24787 3.61687 -2.56992
1 9.25049 1.84028 -3.17911
2 12.3386 3.5504 -2.54241
1 16.9537 2.65684 -5.71847
1 13.8532 2.63764 -5.73608
1 15.4386 21.308 -5.6496
2 15.4333 1.72566 -5.11508
2 16.8973 1.01785 -2.53933
2 13.8973 0.921892 -2.58252
2 15.2639 3.50794 -2.52268
1 15.3719 1.83646 -3.24976
1 1.47948 8.02155 -5.6834
1 18.4888 5.34529 -5.6767
2 1.5203 4.43441 -5.03123
2 3.17533 6.89285 -4.98216
1 3.08987 5.36607 -5.61723
1 1.48158 4.45071 -3.19077
1 3.06505 7.15855 -3.20521
2 18.461 7.12376 -5.0663
2 1.51532 6.16213 -2.57225
1 0.00777444 7.06137 -3.22795
1 7.68634 8.05403 -5.65383
1 4.61634 8.04936 -5.70874
1 6.1885 5.37126 -5.71098
2 7.69193 4.44883 -5.01257
1 7.76186 4.47232 -3.18098
2 4.63334 4.52206 -5.08146
1 4.58207 4.40052 -3.19201
2 6.11982 7.15776 -5.0724
2 7.72237 6.19588 -2.60665
2 4.51502 6.19058 -2.57155
1 6.07682 7.08784 -3.15549
1 10.7258 8.03936 -5.64387
1 12.2797 5.29816 -5.64362
2 10.6751 4.50998 -5.06869
2 9.27326 7.08124 -4.98871
1 9.20557 5.33972 -5.66057
1 10.7932 4.49118 -3.08382
1 9.25451 7.13461 -3.11417
2 12.3447 7.05091 -4.97602
2 10.7985 6.24771 -2.52302
1 12.3137 7.1194 -3.09218
1 16.9216 8.05352 -5.71847
1 13.8595 7.97247 -5.67951
2 17 4.40455 -4.99834
2 13.8896 4.4481 -5.08367
2 15.4441 7.11097 -5.14374
1 15.4187 5.36725 -5.68697
1 16.3885 4.05184 -3.45737
1 13.8182 4.4346 -3.19711
1 15.4281 7.18123 -3.24402
2 16.8779 6.26971 -2.53295
2 13.9337 6.31031 -2.52033
1 3.01671 10.6397 -5.63199
2 1.48863 9.78338 -5.15876
2 0.00896212 12.5456 -4.97617
1 18.4458 10.6766 -5.71074
1 1.523 9.74361 -3.16398
1 0.00214839 12.4807 -3.11756
2 3.04881 12.4835 -5.10412
2 1.50192 11.5282 -2.51459
1 3.05739 12.4245 -3.10795
2 18.4301 8.82218 -2.52214
2 3.12821 8.90586 -2.6059
2 7.69936 9.77659 -5.02842
2 4.65541 9.78507 -5.03516
2 6.15082 12.4167 -5.01314
1 6.11178 10.6586 -5.70056
1 7.62124 9.81343 -3.17485
1 4.62463 9.81356 -3.18056
1 6.1179 12.4919 -3.16981
2 7.65235 11.5487 -2.48324
2 4.60637 11.5875 -2.51024
2 6.10789 8.89001 -2.56174
1 9.20592 10.6988 -5.69878
2 10.7252 9.84115 -5.04733
2 12.3037 12.4795 -5.06431
1 12.2763 10.7256 -5.64951
1 10.7463 9.7862 -3.13779
1 12.3456 12.5051 -3.20772
2 9.17544 12.5322 -5.0148
2 10.739 11.5605 -2.59792
1 9.17828 12.4658 -3.15054
2 12.2762 8.93582 -2.50927
2 9.247 8.864 -2.4302
1 15.4233 10.6618 -5.69784
2 16.9114 9.82233 -5.04537
1 16.9564 9.84102 -3.16322
2 13.7864 9.81347 -5.03157
1 13.773 9.87274 -3.14779
2 15.3865 12.4517 -5.0557
2 16.8456 11.5848 -2.41712
2 13.7798 11.6631 -2.46385
1 15.3676 12.4364 -3.12994
2 15.4437 9.04928 -2.44651
1 1.50078 13.3986 -5.67374
1 18.4486 16.0654 -5.71391
2 1.49065 15.206 -4.95757
1 3.07594 15.9702 -5.65084
1 1.55392 15.1327 -3.09345
2 1.5148 16.9456 -2.49272
2 3.13113 14.2553 -2.5978
2 18.486 14.2151 -2.52516
1 7.69988 13.3613 -5.65175
1 4.6415 13.3239 -5.64051
1 6.2047 16.0285 -5.68959
2 7.70902 15.1271 -4.99312
1 7.68398 15.1677 -3.09342
2 4.70612 15.1606 -5.03084
1 4.63976 15.1445 -3.17355
2 7.7339 16.9478 -2.47696
2 4.73215 16.9538 -2.55117
2 6.18891 14.2809 -2.59095
1 10.7653 13.3822 -5.60481
1 12.374 16.0055 -5.70491
2 10.7953 15.1219 -5.05935
1 9.24406 16.008 -5.60294
1 10.8017 15.0954 -3.18271
2 10.7946 16.9323 -2.56219
2 9.24389 14.2122 -2.57899
2 12.1308 14.5249 -2.03645
1 16.9483 13.3176 -5.67253
1 13.5554 13.5463 -5.50398
2 16.9134 15.1152 -5.05262
2 13.7717 15.0533 -5.12568
1 15.351 15.9927 -5.70307
1 16.9397 15.1497 -3.16573
1 13.8436 15.0905 -3.23143
2 16.9314 16.9148 -2.5434
2 13.8744 16.8478 -2.6361
2 15.3709 14.2059 -2.58318
1 1.50957 18.7237 -5.62704
2 1.63337 20.4991 -5.07195
1 1.51692 20.4836 -3.1023
2 3.07988 17.7233 -5.01529
1 3.0843 17.8153 -3.11846
2 18.4521 17.7733 -5.01906
2 18.3938 19.5836 -2.50296
1 18.4743 17.8417 -3.16914
2 3.11702 19.5677 -2.45321
1 7.75478 18.7527 -5.71355
1 4.61934 18.7752 -5.72116
2 7.77888 20.5831 -5.00157
2 4.60922 20.5771 -5.04274
1 7.7442 20.5121 -3.18905
1 4.65132 20.5262 -3.14652
2 6.22498 17.8443 -5.14731
2 6.18935 19.605 -2.64676
1 6.20524 17.8521 -3.29196
1 10.8145 18.6592 -5.63903
2 10.8409 20.45 -5.07766
1 10.8082 20.4938 -3.14142
2 9.24274 17.7888 -5.01604
1 9.24221 17.9283 -3.18171
2 12.3482 17.7945 -5.02713
2 12.3629 19.642 -2.44011
1 12.3607 17.7826 -3.12532
2 9.19795 19.728 -2.51136
1 16.9374 18.7208 -5.68322
1 13.7994 18.7451 -5.67766
2 16.9792 20.5036 -5.03057
1 16.8799 20.5778 -3.13396
2 13.8671 20.4981 -4.97756
1 13.882 20.4883 -3.13504
2 15.2998 17.7742 -5.1326
1 15.378 17.7312 -3.21699
2 15.4843 19.5827 -2.56458
1 1.50413 0.922706 -0.667905
1 2.9987 3.5145 -0.678507
2 1.45364 2.6574 -0.371663
1 18.3 3.43086 -0.640601
2 3.11245 0.0891421 -0.391718
2 18.4479 0.105278 -0.511266
1 7.74081 1.19678 -0.506101
1 4.65082 0.973124 -0.642926
2 4.58209 2.78832 -0.319742
1 6.05923 3.97529 -0.629908
2 6.22867 0.11725 -0.421167
1 10.8997 0.94407 -0.659207
1 9.23522 3.47403 -0.590492
2 10.9098 2.65206 -0.44083
1 12.4838 3.66603 -0.629244
2 9.2709 0.0937829 -0.154736
2 12.4283 0.0767498 -0.354265
1 16.9553 1.19333 -0.56799
1 13.8919 0.905481 -0.683672
1 15.0453 3.20317 -0.555304
2 15.4298 0.0729789 -0.499728
1 1.39457 6.11615 -0.610004
2 1.39834 7.915 -0.307962
2 18.2999 5.26736 -0.347137
2 2.9674 5.28652 -0.202338
1 7.63056 6.0986 -0.619941
1 4.56352 6.09358 -0.527124
2 7.66383 7.95199 -0.355564
2 4.61383 7.92676 -0.367736
1 10.8323 6.30013 -0.638124
2 10.8728 8.07229 -0.188806
2 12.4619 5.38122 -0.429624
2 9.34216 5.32191 -0.283164
1 16.7717 6.42564 -0.596261
1 14.1433 6.33451 -0.586807
2 14.0461 8.13229 -0.272804
1 1.51909 11.5227 -0.658995
1 18.1749 8.74884 -0.512535
2 3.01168 10.5753 -0.413465
1 3.05291 8.76272 -0.669808
2 18.4321 10.6585 -0.323729
1 7.6974 11.554 -0.601607
1 4.60339 11.5599 -0.632838
1 6.13053 8.84644 -0.601335
2 6.14346 10.6374 -0.476864
1 10.873 11.6053 -0.725988
1 12.4803 9.02608 -0.504168
2 9.28259 10.7194 -0.385587
1 9.24295 8.88879 -0.517217
1 16.8265 11.4675 -0.524345
1 13.3093 11.55 -0.557086
1 15.6327 9.17699 -0.531292
1 1.54299 16.9685 -0.547119
1 3.13831 14.2515 -0.730609
2 1.52104 13.3244 -0.440951
2 18.4708 16.0702 -0.210342
1 18.3984 14.2702 -0.575299
2 3.15505 16.0091 -0.486016
1 7.73567 16.921 -0.623566
1 4.72244 16.9466 -0.723239
2 7.70536 13.4229 -0.32542