CRYSTAL
PRIMVEC
   10.00000000   0.000000000   0.000000000
   0.000000000   10.00000000   0.000000000
   0.000000000   0.000000000   10.00000000
PRIMCOORD
2 1
Ti 0.0 0.0 0.0 0
O  0.0 0.0 2.0 1
