CRYSTAL
PRIMVEC
3.95 0 0
0 3.95 0
0 0 20
PRIMCOORD
8 1
Ti  1.975  1.975  1.975 1
O   1.975  0.000  1.975 1
O   0.000  1.975  1.975 1
Sr  0.000  0.000  0.000 0
O   1.975  1.975  0.000 0
Ti -1.975 -1.975 -1.975 1
O  -1.975  0.000 -1.975 1
O   0.000 -1.975 -1.975 1
