ITEM: TIMESTEP
0
ITEM: NUMBER OF ATOMS
512
ITEM: BOX BOUNDS pp pp pp
0.0000000000000000e+00 1.7438400000000001e+01
0.0000000000000000e+00 1.7438400000000001e+01
-1.7438400000000001e+01 1.7438400000000001e+01
ITEM: ATOMS id type xs ys zs
1 2 0.125 0 0.3125
2 2 0 0.125 0.3125
3 1 0.0625 0.0625 0.28125
4 1 0.1875 0.0625 0.34375
5 1 0.0625 0.1875 0.34375
6 1 0.1875 0.1875 0.28125
7 2 0.375 0 0.3125
8 2 0.25 0.125 0.3125
9 1 0.3125 0.0625 0.28125
10 1 0.4375 0.0625 0.34375
11 1 0.3125 0.1875 0.34375
12 1 0.4375 0.1875 0.28125
13 2 0.625 0 0.3125
14 2 0.5 0.125 0.3125
15 1 0.5625 0.0625 0.28125
16 1 0.6875 0.0625 0.34375
17 1 0.5625 0.1875 0.34375
18 1 0.6875 0.1875 0.28125
19 2 0.875 0 0.3125
20 2 0.75 0.125 0.3125
21 1 0.8125 0.0625 0.28125
22 1 0.9375 0.0625 0.34375
23 1 0.8125 0.1875 0.34375
24 1 0.9375 0.1875 0.28125
25 2 0.125 0.25 0.3125
26 2 0 0.375 0.3125
27 1 0.0625 0.3125 0.28125
28 1 0.1875 0.3125 0.34375
29 1 0.0625 0.4375 0.34375
30 1 0.1875 0.4375 0.28125
31 2 0.375 0.25 0.3125
32 2 0.25 0.375 0.3125
33 1 0.3125 0.3125 0.28125
34 1 0.4375 0.3125 0.34375
35 1 0.3125 0.4375 0.34375
36 1 0.4375 0.4375 0.28125
37 2 0.625 0.25 0.3125
38 2 0.5 0.375 0.3125
39 1 0.5625 0.3125 0.28125
40 1 0.6875 0.3125 0.34375
41 1 0.5625 0.4375 0.34375
42 1 0.6875 0.4375 0.28125
43 2 0.875 0.25 0.3125
44 2 0.75 0.375 0.3125
45 1 0.8125 0.3125 0.28125
46 1 0.9375 0.3125 0.34375
47 1 0.8125 0.4375 0.34375
48 1 0.9375 0.4375 0.28125
49 2 0.125 0.5 0.3125
50 2 0 0.625 0.3125
51 1 0.0625 0.5625 0.28125
52 1 0.1875 0.5625 0.34375
53 1 0.0625 0.6875 0.34375
54 1 0.1875 0.6875 0.28125
55 2 0.375 0.5 0.3125
56 2 0.25 0.625 0.3125
57 1 0.3125 0.5625 0.28125
58 1 0.4375 0.5625 0.34375
59 1 0.3125 0.6875 0.34375
60 1 0.4375 0.6875 0.28125
61 2 0.625 0.5 0.3125
62 2 0.5 0.625 0.3125
63 1 0.5625 0.5625 0.28125
64 1 0.6875 0.5625 0.34375
65 1 0.5625 0.6875 0.34375
66 1 0.6875 0.6875 0.28125
67 2 0.875 0.5 0.3125
68 2 0.75 0.625 0.3125
69 1 0.8125 0.5625 0.28125
70 1 0.9375 0.5625 0.34375
71 1 0.8125 0.6875 0.34375
72 1 0.9375 0.6875 0.28125
73 2 0.125 0.75 0.3125
74 2 0 0.875 0.3125
75 1 0.0625 0.8125 0.28125
76 1 0.1875 0.8125 0.34375
77 1 0.0625 0.9375 0.34375
78 1 0.1875 0.9375 0.28125
79 2 0.375 0.75 0.3125
80 2 0.25 0.875 0.3125
81 1 0.3125 0.8125 0.28125
82 1 0.4375 0.8125 0.34375
83 1 0.3125 0.9375 0.34375
84 1 0.4375 0.9375 0.28125
85 2 0.625 0.75 0.3125
86 2 0.5 0.875 0.3125
87 1 0.5625 0.8125 0.28125
88 1 0.6875 0.8125 0.34375
89 1 0.5625 0.9375 0.34375
90 1 0.6875 0.9375 0.28125
91 2 0.875 0.75 0.3125
92 2 0.75 0.875 0.3125
93 1 0.8125 0.8125 0.28125
94 1 0.9375 0.8125 0.34375
95 1 0.8125 0.9375 0.34375
96 1 0.9375 0.9375 0.28125
97 2 0 0 0.375
98 2 0.125 0 0.4375
99 2 0 0.125 0.4375
100 2 0.125 0.125 0.375
101 1 0.0625 0.0625 0.40625
102 1 0.1875 0.0625 0.46875
103 1 0.0625 0.1875 0.46875
104 1 0.1875 0.1875 0.40625
105 2 0.25 0 0.375
106 2 0.375 0 0.4375
107 2 0.25 0.125 0.4375
108 2 0.375 0.125 0.375
109 1 0.3125 0.0625 0.40625
110 1 0.4375 0.0625 0.46875
111 1 0.3125 0.1875 0.46875
112 1 0.4375 0.1875 0.40625
113 2 0.5 0 0.375
114 2 0.625 0 0.4375
115 2 0.5 0.125 0.4375
116 2 0.625 0.125 0.375
117 1 0.5625 0.0625 0.40625
118 1 0.6875 0.0625 0.46875
119 1 0.5625 0.1875 0.46875
120 1 0.6875 0.1875 0.40625
121 2 0.75 0 0.375
122 2 0.875 0 0.4375
123 2 0.75 0.125 0.4375
124 2 0.875 0.125 0.375
125 1 0.8125 0.0625 0.40625
126 1 0.9375 0.0625 0.46875
127 1 0.8125 0.1875 0.46875
128 1 0.9375 0.1875 0.40625
129 2 0 0.25 0.375
130 2 0.125 0.25 0.4375
131 2 0 0.375 0.4375
132 2 0.125 0.375 0.375
133 1 0.0625 0.3125 0.40625
134 1 0.1875 0.3125 0.46875
135 1 0.0625 0.4375 0.46875
136 1 0.1875 0.4375 0.40625
137 2 0.25 0.25 0.375
138 2 0.375 0.25 0.4375
139 2 0.25 0.375 0.4375
140 2 0.375 0.375 0.375
141 1 0.3125 0.3125 0.40625
142 1 0.4375 0.3125 0.46875
143 1 0.3125 0.4375 0.46875
144 1 0.4375 0.4375 0.40625
145 2 0.5 0.25 0.375
146 2 0.625 0.25 0.4375
147 2 0.5 0.375 0.4375
148 2 0.625 0.375 0.375
149 1 0.5625 0.3125 0.40625
150 1 0.6875 0.3125 0.46875
151 1 0.5625 0.4375 0.46875
152 1 0.6875 0.4375 0.40625
153 2 0.75 0.25 0.375
154 2 0.875 0.25 0.4375
155 2 0.75 0.375 0.4375
156 2 0.875 0.375 0.375
157 1 0.8125 0.3125 0.40625
158 1 0.9375 0.3125 0.46875
159 1 0.8125 0.4375 0.46875
160 1 0.9375 0.4375 0.40625
161 2 0 0.5 0.375
162 2 0.125 0.5 0.4375
163 2 0 0.625 0.4375
164 2 0.125 0.625 0.375
165 1 0.0625 0.5625 0.40625
166 1 0.1875 0.5625 0.46875
167 1 0.0625 0.6875 0.46875
168 1 0.1875 0.6875 0.40625
169 2 0.25 0.5 0.375
170 2 0.375 0.5 0.4375
171 2 0.25 0.625 0.4375
172 2 0.375 0.625 0.375
173 1 0.3125 0.5625 0.40625
174 1 0.4375 0.5625 0.46875
175 1 0.3125 0.6875 0.46875
176 1 0.4375 0.6875 0.40625
177 2 0.5 0.5 0.375
178 2 0.625 0.5 0.4375
179 2 0.5 0.625 0.4375
180 2 0.625 0.625 0.375
181 1 0.5625 0.5625 0.40625
182 1 0.6875 0.5625 0.46875
183 1 0.5625 0.6875 0.46875
184 1 0.6875 0.6875 0.40625
185 2 0.75 0.5 0.375
186 2 0.875 0.5 0.4375
187 2 0.75 0.625 0.4375
188 2 0.875 0.625 0.375
189 1 0.8125 0.5625 0.40625
190 1 0.9375 0.5625 0.46875
191 1 0.8125 0.6875 0.46875
192 1 0.9375 0.6875 0.40625
193 2 0 0.75 0.375
194 2 0.125 0.75 0.4375
195 2 0 0.875 0.4375
196 2 0.125 0.875 0.375
197 1 0.0625 0.8125 0.40625
198 1 0.1875 0.8125 0.46875
199 1 0.0625 0.9375 0.46875
200 1 0.1875 0.9375 0.40625
201 2 0.25 0.75 0.375
202 2 0.375 0.75 0.4375
203 2 0.25 0.875 0.4375
204 2 0.375 0.875 0.375
205 1 0.3125 0.8125 0.40625
206 1 0.4375 0.8125 0.46875
207 1 0.3125 0.9375 0.46875
208 1 0.4375 0.9375 0.40625
209 2 0.5 0.75 0.375
210 2 0.625 0.75 0.4375
211 2 0.5 0.875 0.4375
212 2 0.625 0.875 0.375
213 1 0.5625 0.8125 0.40625
214 1 0.6875 0.8125 0.46875
215 1 0.5625 0.9375 0.46875
216 1 0.6875 0.9375 0.40625
217 2 0.75 0.75 0.375
218 2 0.875 0.75 0.4375
219 2 0.75 0.875 0.4375
220 2 0.875 0.875 0.375
221 1 0.8125 0.8125 0.40625
222 1 0.9375 0.8125 0.46875
223 1 0.8125 0.9375 0.46875
224 1 0.9375 0.9375 0.40625
225 2 0 0 0.5
226 2 0.125 0 0.5625
227 2 0 0.125 0.5625
228 2 0.125 0.125 0.5
229 1 0.0625 0.0625 0.53125
230 1 0.1875 0.0625 0.59375
231 1 0.0625 0.1875 0.59375
232 1 0.1875 0.1875 0.53125
233 2 0.25 0 0.5
234 2 0.375 0 0.5625
235 2 0.25 0.125 0.5625
236 2 0.375 0.125 0.5
237 1 0.3125 0.0625 0.53125
238 1 0.4375 0.0625 0.59375
239 1 0.3125 0.1875 0.59375
240 1 0.4375 0.1875 0.53125
241 2 0.5 0 0.5
242 2 0.625 0 0.5625
243 2 0.5 0.125 0.5625
244 2 0.625 0.125 0.5
245 1 0.5625 0.0625 0.53125
246 1 0.6875 0.0625 0.59375
247 1 0.5625 0.1875 0.59375
248 1 0.6875 0.1875 0.53125
249 2 0.75 0 0.5
250 2 0.875 0 0.5625
251 2 0.75 0.125 0.5625
252 2 0.875 0.125 0.5
253 1 0.8125 0.0625 0.53125
254 1 0.9375 0.0625 0.59375
255 1 0.8125 0.1875 0.59375
256 1 0.9375 0.1875 0.53125
257 2 0 0.25 0.5
258 2 0.125 0.25 0.5625
259 2 0 0.375 0.5625
260 2 0.125 0.375 0.5
261 1 0.0625 0.3125 0.53125
262 1 0.1875 0.3125 0.59375
263 1 0.0625 0.4375 0.59375
264 1 0.1875 0.4375 0.53125
265 2 0.25 0.25 0.5
266 2 0.375 0.25 0.5625
267 2 0.25 0.375 0.5625
268 2 0.375 0.375 0.5
269 1 0.3125 0.3125 0.53125
270 1 0.4375 0.3125 0.59375
271 1 0.3125 0.4375 0.59375
272 1 0.4375 0.4375 0.53125
273 2 0.5 0.25 0.5
274 2 0.625 0.25 0.5625
275 2 0.5 0.375 0.5625
276 2 0.625 0.375 0.5
277 1 0.5625 0.3125 0.53125
278 1 0.6875 0.3125 0.59375
279 1 0.5625 0.4375 0.59375
280 1 0.6875 0.4375 0.53125
281 2 0.75 0.25 0.5
282 2 0.875 0.25 0.5625
283 2 0.75 0.375 0.5625
284 2 0.875 0.375 0.5
285 1 0.8125 0.3125 0.53125
286 1 0.9375 0.3125 0.59375
287 1 0.8125 0.4375 0.59375
288 1 0.9375 0.4375 0.53125
289 2 0 0.5 0.5
290 2 0.125 0.5 0.5625
291 2 0 0.625 0.5625
292 2 0.125 0.625 0.5
293 1 0.0625 0.5625 0.53125
294 1 0.1875 0.5625 0.59375
295 1 0.0625 0.6875 0.59375
296 1 0.1875 0.6875 0.53125
297 2 0.25 0.5 0.5
298 2 0.375 0.5 0.5625
299 2 0.25 0.625 0.5625
300 2 0.375 0.625 0.5
301 1 0.3125 0.5625 0.53125
302 1 0.4375 0.5625 0.59375
303 1 0.3125 0.6875 0.59375
304 1 0.4375 0.6875 0.53125
305 2 0.5 0.5 0.5
306 2 0.625 0.5 0.5625
307 2 0.5 0.625 0.5625
308 2 0.625 0.625 0.5
309 1 0.5625 0.5625 0.53125
310 1 0.6875 0.5625 0.59375
311 1 0.5625 0.6875 0.59375
312 1 0.6875 0.6875 0.53125
313 2 0.75 0.5 0.5
314 2 0.875 0.5 0.5625
315 2 0.75 0.625 0.5625
316 2 0.875 0.625 0.5
317 1 0.8125 0.5625 0.53125
318 1 0.9375 0.5625 0.59375
319 1 0.8125 0.6875 0.59375
320 1 0.9375 0.6875 0.53125
321 2 0 0.75 0.5
322 2 0.125 0.75 0.5625
323 2 0 0.875 0.5625
324 2 0.125 0.875 0.5
325 1 0.0625 0.8125 0.53125
326 1 0.1875 0.8125 0.59375
327 1 0.0625 0.9375 0.59375
328 1 0.1875 0.9375 0.53125
329 2 0.25 0.75 0.5
330 2 0.375 0.75 0.5625
331 2 0.25 0.875 0.5625
332 2 0.375 0.875 0.5
333 1 0.3125 0.8125 0.53125
334 1 0.4375 0.8125 0.59375
335 1 0.3125 0.9375 0.59375
336 1 0.4375 0.9375 0.53125
337 2 0.5 0.75 0.5
338 2 0.625 0.75 0.5625
339 2 0.5 0.875 0.5625
340 2 0.625 0.875 0.5
341 1 0.5625 0.8125 0.53125
342 1 0.6875 0.8125 0.59375
343 1 0.5625 0.9375 0.59375
344 1 0.6875 0.9375 0.53125
345 2 0.75 0.75 0.5
346 2 0.875 0.75 0.5625
347 2 0.75 0.875 0.5625
348 2 0.875 0.875 0.5
349 1 0.8125 0.8125 0.53125
350 1 0.9375 0.8125 0.59375
351 1 0.8125 0.9375 0.59375
352 1 0.9375 0.9375 0.53125
353 2 0 0 0.625
354 2 0.125 0 0.6875
355 2 0 0.125 0.6875
356 2 0.125 0.125 0.625
357 1 0.0625 0.0625 0.65625
358 1 0.1875 0.0625 0.71875
359 1 0.0625 0.1875 0.71875
360 1 0.1875 0.1875 0.65625
361 2 0.25 0 0.625
362 2 0.375 0 0.6875
363 2 0.25 0.125 0.6875
364 2 0.375 0.125 0.625
365 1 0.3125 0.0625 0.65625
366 1 0.4375 0.0625 0.71875
367 1 0.3125 0.1875 0.71875
368 1 0.4375 0.1875 0.65625
369 2 0.5 0 0.625
370 2 0.625 0 0.6875
371 2 0.5 0.125 0.6875
372 2 0.625 0.125 0.625
373 1 0.5625 0.0625 0.65625
374 1 0.6875 0.0625 0.71875
375 1 0.5625 0.1875 0.71875
376 1 0.6875 0.1875 0.65625
377 2 0.75 0 0.625
378 2 0.875 0 0.6875
379 2 0.75 0.125 0.6875
380 2 0.875 0.125 0.625
381 1 0.8125 0.0625 0.65625
382 1 0.9375 0.0625 0.71875
383 1 0.8125 0.1875 0.71875
384 1 0.9375 0.1875 0.65625
385 2 0 0.25 0.625
386 2 0.125 0.25 0.6875
387 2 0 0.375 0.6875
388 2 0.125 0.375 0.625
389 1 0.0625 0.3125 0.65625
390 1 0.1875 0.3125 0.71875
391 1 0.0625 0.4375 0.71875
392 1 0.1875 0.4375 0.65625
393 2 0.25 0.25 0.625
394 2 0.375 0.25 0.6875
395 2 0.25 0.375 0.6875
396 2 0.375 0.375 0.625
397 1 0.3125 0.3125 0.65625
398 1 0.4375 0.3125 0.71875
399 1 0.3125 0.4375 0.71875
400 1 0.4375 0.4375 0.65625
401 2 0.5 0.25 0.625
402 2 0.625 0.25 0.6875
403 2 0.5 0.375 0.6875
404 2 0.625 0.375 0.625
405 1 0.5625 0.3125 0.65625
406 1 0.6875 0.3125 0.71875
407 1 0.5625 0.4375 0.71875
408 1 0.6875 0.4375 0.65625
409 2 0.75 0.25 0.625
410 2 0.875 0.25 0.6875
411 2 0.75 0.375 0.6875
412 2 0.875 0.375 0.625
413 1 0.8125 0.3125 0.65625
414 1 0.9375 0.3125 0.71875
415 1 0.8125 0.4375 0.71875
416 1 0.9375 0.4375 0.65625
417 2 0 0.5 0.625
418 2 0.125 0.5 0.6875
419 2 0 0.625 0.6875
420 2 0.125 0.625 0.625
421 1 0.0625 0.5625 0.65625
422 1 0.1875 0.5625 0.71875
423 1 0.0625 0.6875 0.71875
424 1 0.1875 0.6875 0.65625
425 2 0.25 0.5 0.625
426 2 0.375 0.5 0.6875
427 2 0.25 0.625 0.6875
428 2 0.375 0.625 0.625
429 1 0.3125 0.5625 0.65625
430 1 0.4375 0.5625 0.71875
431 1 0.3125 0.6875 0.71875
432 1 0.4375 0.6875 0.65625
433 2 0.5 0.5 0.625
434 2 0.625 0.5 0.6875
435 2 0.5 0.625 0.6875
436 2 0.625 0.625 0.625
437 1 0.5625 0.5625 0.65625
438 1 0.6875 0.5625 0.71875
439 1 0.5625 0.6875 0.71875
440 1 0.6875 0.6875 0.65625
441 2 0.75 0.5 0.625
442 2 0.875 0.5 0.6875
443 2 0.75 0.625 0.6875
444 2 0.875 0.625 0.625
445 1 0.8125 0.5625 0.65625
446 1 0.9375 0.5625 0.71875
447 1 0.8125 0.6875 0.71875
448 1 0.9375 0.6875 0.65625
449 2 0 0.75 0.625
450 2 0.125 0.75 0.6875
451 2 0 0.875 0.6875
452 2 0.125 0.875 0.625
453 1 0.0625 0.8125 0.65625
454 1 0.1875 0.8125 0.71875
455 1 0.0625 0.9375 0.71875
456 1 0.1875 0.9375 0.65625
457 2 0.25 0.75 0.625
458 2 0.375 0.75 0.6875
459 2 0.25 0.875 0.6875
460 2 0.375 0.875 0.625
461 1 0.3125 0.8125 0.65625
462 1 0.4375 0.8125 0.71875
463 1 0.3125 0.9375 0.71875
464 1 0.4375 0.9375 0.65625
465 2 0.5 0.75 0.625
466 2 0.625 0.75 0.6875
467 2 0.5 0.875 0.6875
468 2 0.625 0.875 0.625
469 1 0.5625 0.8125 0.65625
470 1 0.6875 0.8125 0.71875
471 1 0.5625 0.9375 0.71875
472 1 0.6875 0.9375 0.65625
473 2 0.75 0.75 0.625
474 2 0.875 0.75 0.6875
475 2 0.75 0.875 0.6875
476 2 0.875 0.875 0.625
477 1 0.8125 0.8125 0.65625
478 1 0.9375 0.8125 0.71875
479 1 0.8125 0.9375 0.71875
480 1 0.9375 0.9375 0.65625
481 2 0 0 0.75
482 2 0.125 0.125 0.75
483 2 0.25 0 0.75
484 2 0.375 0.125 0.75
485 2 0.5 0 0.75
486 2 0.625 0.125 0.75
487 2 0.75 0 0.75
488 2 0.875 0.125 0.75
489 2 0 0.25 0.75
490 2 0.125 0.375 0.75
491 2 0.25 0.25 0.75
492 2 0.375 0.375 0.75
493 2 0.5 0.25 0.75
494 2 0.625 0.375 0.75
495 2 0.75 0.25 0.75
496 2 0.875 0.375 0.75
497 2 0 0.5 0.75
498 2 0.125 0.625 0.75
499 2 0.25 0.5 0.75
500 2 0.375 0.625 0.75
501 2 0.5 0.5 0.75
502 2 0.625 0.625 0.75
503 2 0.75 0.5 0.75
504 2 0.875 0.625 0.75
505 2 0 0.75 0.75
506 2 0.125 0.875 0.75
507 2 0.25 0.75 0.75
508 2 0.375 0.875 0.75
509 2 0.5 0.75 0.75
510 2 0.625 0.875 0.75
511 2 0.75 0.75 0.75
512 2 0.875 0.875 0.75
