ITEM: TIMESTEP
0
ITEM: NUMBER OF ATOMS
520
ITEM: BOX BOUNDS pp pp pp
0.0000000000000000e+00 2.1797999999999998e+01
0.0000000000000000e+00 2.1797999999999998e+01
0.0000000000000000e+00 2.1797999999999998e+01
ITEM: ATOMS id type xs ys zs
1 1 0.05 0.0223607 0.290689
2 2 0.1 0 0.223607
3 2 0 0.0447214 0.134164
4 1 0.15 0.0223607 0.067082
5 1 0.15 0.067082 0.201246
6 1 0.05 0.111803 0.111803
7 2 0 0 0
8 2 0.1 0.0894427 0.0447214
9 1 0.15 0.156525 0.0223607
10 2 0 0 0.447214
11 2 0.1 0.0447214 0.357771
12 2 0.1 0.0894427 0.491935
13 2 0 0.134164 0.402492
14 1 0.05 0.067082 0.424853
15 1 0.15 0.111803 0.33541
16 1 0.15 0.156525 0.469574
17 1 0.05 0.201246 0.380132
18 2 0 0.0894427 0.268328
19 2 0.1 0.134164 0.178885
20 2 0.1 0.178885 0.31305
21 2 0 0.223607 0.223607
22 1 0.05 0.156525 0.245967
23 1 0.15 0.201246 0.156525
24 1 0.15 0.245967 0.290689
25 1 0.05 0.290689 0.201246
26 2 0 0.178885 0.0894427
27 2 0.1 0.223607 0
28 2 0.1 0.268328 0.134164
29 2 0 0.31305 0.0447214
30 1 0.05 0.245967 0.067082
31 1 0.15 0.33541 0.111803
32 1 0.05 0.380132 0.0223607
33 2 0.1 0.223607 0.447214
34 2 0 0.31305 0.491935
35 1 0.15 0.290689 0.424853
36 1 0.05 0.380132 0.469574
37 2 0 0.268328 0.357771
38 2 0.1 0.31305 0.268328
39 2 0.1 0.357771 0.402492
40 2 0 0.402492 0.31305
41 1 0.05 0.33541 0.33541
42 1 0.15 0.380132 0.245967
43 1 0.15 0.424853 0.380132
44 1 0.05 0.469574 0.290689
45 2 0 0.357771 0.178885
46 2 0.1 0.402492 0.0894427
47 2 0.1 0.447214 0.223607
48 2 0 0.491935 0.134164
49 1 0.05 0.424853 0.156525
50 1 0.15 0.469574 0.067082
51 1 0.15 0.514296 0.201246
52 1 0.05 0.559017 0.111803
53 2 0 0.447214 0
54 2 0.1 0.536656 0.0447214
55 1 0.15 0.603738 0.0223607
56 2 0 0.447214 0.447214
57 2 0.1 0.491935 0.357771
58 2 0.1 0.536656 0.491935
59 2 0 0.581378 0.402492
60 1 0.05 0.514296 0.424853
61 1 0.15 0.559017 0.33541
62 1 0.15 0.603738 0.469574
63 1 0.05 0.64846 0.380132
64 2 0 0.536656 0.268328
65 2 0.1 0.581378 0.178885
66 2 0.1 0.626099 0.31305
67 2 0 0.67082 0.223607
68 1 0.05 0.603738 0.245967
69 1 0.15 0.64846 0.156525
70 1 0.15 0.693181 0.290689
71 1 0.05 0.737902 0.201246
72 2 0 0.626099 0.0894427
73 2 0.1 0.67082 0
74 2 0.1 0.715542 0.134164
75 2 0 0.760263 0.0447214
76 1 0.05 0.693181 0.067082
77 1 0.15 0.782624 0.111803
78 1 0.05 0.827345 0.0223607
79 2 0.1 0.67082 0.447214
80 2 0 0.760263 0.491935
81 1 0.15 0.737902 0.424853
82 1 0.05 0.827345 0.469574
83 2 0 0.715542 0.357771
84 2 0.1 0.760263 0.268328
85 2 0.1 0.804984 0.402492
86 2 0 0.849706 0.31305
87 1 0.05 0.782624 0.33541
88 1 0.15 0.827345 0.245967
89 1 0.15 0.872067 0.380132
90 1 0.05 0.916788 0.290689
91 2 0 0.804984 0.178885
92 2 0.1 0.849706 0.0894427
93 2 0.1 0.894427 0.223607
94 2 0 0.939149 0.134164
95 1 0.05 0.872067 0.156525
96 1 0.15 0.916788 0.067082
97 1 0.15 0.961509 0.201246
98 2 0 0.894427 0
99 2 0.1 0.98387 0.0447214
100 2 0 0.894427 0.447214
101 2 0.1 0.939149 0.357771
102 2 0.1 0.98387 0.491935
103 1 0.05 0.961509 0.424853
104 2 0 0.98387 0.268328
105 1 0.25 0.0223607 0.290689
106 2 0.3 0 0.223607
107 2 0.2 0.0447214 0.134164
108 1 0.35 0.0223607 0.067082
109 1 0.35 0.067082 0.201246
110 1 0.25 0.111803 0.111803
111 2 0.2 0 0
112 2 0.3 0.0894427 0.0447214
113 1 0.35 0.156525 0.0223607
114 2 0.2 0 0.447214
115 2 0.3 0.0447214 0.357771
116 2 0.3 0.0894427 0.491935
117 2 0.2 0.134164 0.402492
118 1 0.25 0.067082 0.424853
119 1 0.35 0.111803 0.33541
120 1 0.35 0.156525 0.469574
121 1 0.25 0.201246 0.380132
122 2 0.2 0.0894427 0.268328
123 2 0.3 0.134164 0.178885
124 2 0.3 0.178885 0.31305
125 2 0.2 0.223607 0.223607
126 1 0.25 0.156525 0.245967
127 1 0.35 0.201246 0.156525
128 1 0.35 0.245967 0.290689
129 1 0.25 0.290689 0.201246
130 2 0.2 0.178885 0.0894427
131 2 0.3 0.223607 0
132 2 0.3 0.268328 0.134164
133 2 0.2 0.31305 0.0447214
134 1 0.25 0.245967 0.067082
135 1 0.35 0.33541 0.111803
136 1 0.25 0.380132 0.0223607
137 2 0.3 0.223607 0.447214
138 2 0.2 0.31305 0.491935
139 1 0.35 0.290689 0.424853
140 1 0.25 0.380132 0.469574
141 2 0.2 0.268328 0.357771
142 2 0.3 0.31305 0.268328
143 2 0.3 0.357771 0.402492
144 2 0.2 0.402492 0.31305
145 1 0.25 0.33541 0.33541
146 1 0.35 0.380132 0.245967
147 1 0.35 0.424853 0.380132
148 1 0.25 0.469574 0.290689
149 2 0.2 0.357771 0.178885
150 2 0.3 0.402492 0.0894427
151 2 0.3 0.447214 0.223607
152 2 0.2 0.491935 0.134164
153 1 0.25 0.424853 0.156525
154 1 0.35 0.469574 0.067082
155 1 0.35 0.514296 0.201246
156 1 0.25 0.559017 0.111803
157 2 0.2 0.447214 0
158 2 0.3 0.536656 0.0447214
159 1 0.35 0.603738 0.0223607
160 2 0.2 0.447214 0.447214
161 2 0.3 0.491935 0.357771
162 2 0.3 0.536656 0.491935
163 2 0.2 0.581378 0.402492
164 1 0.25 0.514296 0.424853
165 1 0.35 0.559017 0.33541
166 1 0.35 0.603738 0.469574
167 1 0.25 0.64846 0.380132
168 2 0.2 0.536656 0.268328
169 2 0.3 0.581378 0.178885
170 2 0.3 0.626099 0.31305
171 2 0.2 0.67082 0.223607
172 1 0.25 0.603738 0.245967
173 1 0.35 0.64846 0.156525
174 1 0.35 0.693181 0.290689
175 1 0.25 0.737902 0.201246
176 2 0.2 0.626099 0.0894427
177 2 0.3 0.67082 0
178 2 0.3 0.715542 0.134164
179 2 0.2 0.760263 0.0447214
180 1 0.25 0.693181 0.067082
181 1 0.35 0.782624 0.111803
182 1 0.25 0.827345 0.0223607
183 2 0.3 0.67082 0.447214
184 2 0.2 0.760263 0.491935
185 1 0.35 0.737902 0.424853
186 1 0.25 0.827345 0.469574
187 2 0.2 0.715542 0.357771
188 2 0.3 0.760263 0.268328
189 2 0.3 0.804984 0.402492
190 2 0.2 0.849706 0.31305
191 1 0.25 0.782624 0.33541
192 1 0.35 0.827345 0.245967
193 1 0.35 0.872067 0.380132
194 1 0.25 0.916788 0.290689
195 2 0.2 0.804984 0.178885
196 2 0.3 0.849706 0.0894427
197 2 0.3 0.894427 0.223607
198 2 0.2 0.939149 0.134164
199 1 0.25 0.872067 0.156525
200 1 0.35 0.916788 0.067082
201 1 0.35 0.961509 0.201246
202 2 0.2 0.894427 0
203 2 0.3 0.98387 0.0447214
204 2 0.2 0.894427 0.447214
205 2 0.3 0.939149 0.357771
206 2 0.3 0.98387 0.491935
207 1 0.25 0.961509 0.424853
208 2 0.2 0.98387 0.268328
209 1 0.45 0.0223607 0.290689
210 2 0.5 0 0.223607
211 2 0.4 0.0447214 0.134164
212 1 0.55 0.0223607 0.067082
213 1 0.55 0.067082 0.201246
214 1 0.45 0.111803 0.111803
215 2 0.4 0 0
216 2 0.5 0.0894427 0.0447214
217 1 0.55 0.156525 0.0223607
218 2 0.4 0 0.447214
219 2 0.5 0.0447214 0.357771
220 2 0.5 0.0894427 0.491935
221 2 0.4 0.134164 0.402492
222 1 0.45 0.067082 0.424853
223 1 0.55 0.111803 0.33541
224 1 0.55 0.156525 0.469574
225 1 0.45 0.201246 0.380132
226 2 0.4 0.0894427 0.268328
227 2 0.5 0.134164 0.178885
228 2 0.5 0.178885 0.31305
229 2 0.4 0.223607 0.223607
230 1 0.45 0.156525 0.245967
231 1 0.55 0.201246 0.156525
232 1 0.55 0.245967 0.290689
233 1 0.45 0.290689 0.201246
234 2 0.4 0.178885 0.0894427
235 2 0.5 0.223607 0
236 2 0.5 0.268328 0.134164
237 2 0.4 0.31305 0.0447214
238 1 0.45 0.245967 0.067082
239 1 0.55 0.33541 0.111803
240 1 0.45 0.380132 0.0223607
241 2 0.5 0.223607 0.447214
242 2 0.4 0.31305 0.491935
243 1 0.55 0.290689 0.424853
244 1 0.45 0.380132 0.469574
245 2 0.4 0.268328 0.357771
246 2 0.5 0.31305 0.268328
247 2 0.5 0.357771 0.402492
248 2 0.4 0.402492 0.31305
249 1 0.45 0.33541 0.33541
250 1 0.55 0.380132 0.245967
251 1 0.55 0.424853 0.380132
252 1 0.45 0.469574 0.290689
253 2 0.4 0.357771 0.178885
254 2 0.5 0.402492 0.0894427
255 2 0.5 0.447214 0.223607
256 2 0.4 0.491935 0.134164
257 1 0.45 0.424853 0.156525
258 1 0.55 0.469574 0.067082
259 1 0.55 0.514296 0.201246
260 1 0.45 0.559017 0.111803
261 2 0.4 0.447214 0
262 2 0.5 0.536656 0.0447214
263 1 0.55 0.603738 0.0223607
264 2 0.4 0.447214 0.447214
265 2 0.5 0.491935 0.357771
266 2 0.5 0.536656 0.491935
267 2 0.4 0.581378 0.402492
268 1 0.45 0.514296 0.424853
269 1 0.55 0.559017 0.33541
270 1 0.55 0.603738 0.469574
271 1 0.45 0.64846 0.380132
272 2 0.4 0.536656 0.268328
273 2 0.5 0.581378 0.178885
274 2 0.5 0.626099 0.31305
275 2 0.4 0.67082 0.223607
276 1 0.45 0.603738 0.245967
277 1 0.55 0.64846 0.156525
278 1 0.55 0.693181 0.290689
279 1 0.45 0.737902 0.201246
280 2 0.4 0.626099 0.0894427
281 2 0.5 0.67082 0
282 2 0.5 0.715542 0.134164
283 2 0.4 0.760263 0.0447214
284 1 0.45 0.693181 0.067082
285 1 0.55 0.782624 0.111803
286 1 0.45 0.827345 0.0223607
287 2 0.5 0.67082 0.447214
288 2 0.4 0.760263 0.491935
289 1 0.55 0.737902 0.424853
290 1 0.45 0.827345 0.469574
291 2 0.4 0.715542 0.357771
292 2 0.5 0.760263 0.268328
293 2 0.5 0.804984 0.402492
294 2 0.4 0.849706 0.31305
295 1 0.45 0.782624 0.33541
296 1 0.55 0.827345 0.245967
297 1 0.55 0.872067 0.380132
298 1 0.45 0.916788 0.290689
299 2 0.4 0.804984 0.178885
300 2 0.5 0.849706 0.0894427
301 2 0.5 0.894427 0.223607
302 2 0.4 0.939149 0.134164
303 1 0.45 0.872067 0.156525
304 1 0.55 0.916788 0.067082
305 1 0.55 0.961509 0.201246
306 2 0.4 0.894427 0
307 2 0.5 0.98387 0.0447214
308 2 0.4 0.894427 0.447214
309 2 0.5 0.939149 0.357771
310 2 0.5 0.98387 0.491935
311 1 0.45 0.961509 0.424853
312 2 0.4 0.98387 0.268328
313 1 0.65 0.0223607 0.290689
314 2 0.7 0 0.223607
315 2 0.6 0.0447214 0.134164
316 1 0.75 0.0223607 0.067082
317 1 0.75 0.067082 0.201246
318 1 0.65 0.111803 0.111803
319 2 0.6 0 0
320 2 0.7 0.0894427 0.0447214
321 1 0.75 0.156525 0.0223607
322 2 0.6 0 0.447214
323 2 0.7 0.0447214 0.357771
324 2 0.7 0.0894427 0.491935
325 2 0.6 0.134164 0.402492
326 1 0.65 0.067082 0.424853
327 1 0.75 0.111803 0.33541
328 1 0.75 0.156525 0.469574
329 1 0.65 0.201246 0.380132
330 2 0.6 0.0894427 0.268328
331 2 0.7 0.134164 0.178885
332 2 0.7 0.178885 0.31305
333 2 0.6 0.223607 0.223607
334 1 0.65 0.156525 0.245967
335 1 0.75 0.201246 0.156525
336 1 0.75 0.245967 0.290689
337 1 0.65 0.290689 0.201246
338 2 0.6 0.178885 0.0894427
339 2 0.7 0.223607 0
340 2 0.7 0.268328 0.134164
341 2 0.6 0.31305 0.0447214
342 1 0.65 0.245967 0.067082
343 1 0.75 0.33541 0.111803
344 1 0.65 0.380132 0.0223607
345 2 0.7 0.223607 0.447214
346 2 0.6 0.31305 0.491935
347 1 0.75 0.290689 0.424853
348 1 0.65 0.380132 0.469574
349 2 0.6 0.268328 0.357771
350 2 0.7 0.31305 0.268328
351 2 0.7 0.357771 0.402492
352 2 0.6 0.402492 0.31305
353 1 0.65 0.33541 0.33541
354 1 0.75 0.380132 0.245967
355 1 0.75 0.424853 0.380132
356 1 0.65 0.469574 0.290689
357 2 0.6 0.357771 0.178885
358 2 0.7 0.402492 0.0894427
359 2 0.7 0.447214 0.223607
360 2 0.6 0.491935 0.134164
361 1 0.65 0.424853 0.156525
362 1 0.75 0.469574 0.067082
363 1 0.75 0.514296 0.201246
364 1 0.65 0.559017 0.111803
365 2 0.6 0.447214 0
366 2 0.7 0.536656 0.0447214
367 1 0.75 0.603738 0.0223607
368 2 0.6 0.447214 0.447214
369 2 0.7 0.491935 0.357771
370 2 0.7 0.536656 0.491935
371 2 0.6 0.581378 0.402492
372 1 0.65 0.514296 0.424853
373 1 0.75 0.559017 0.33541
374 1 0.75 0.603738 0.469574
375 1 0.65 0.64846 0.380132
376 2 0.6 0.536656 0.268328
377 2 0.7 0.581378 0.178885
378 2 0.7 0.626099 0.31305
379 2 0.6 0.67082 0.223607
380 1 0.65 0.603738 0.245967
381 1 0.75 0.64846 0.156525
382 1 0.75 0.693181 0.290689
383 1 0.65 0.737902 0.201246
384 2 0.6 0.626099 0.0894427
385 2 0.7 0.67082 0
386 2 0.7 0.715542 0.134164
387 2 0.6 0.760263 0.0447214
388 1 0.65 0.693181 0.067082
389 1 0.75 0.782624 0.111803
390 1 0.65 0.827345 0.0223607
391 2 0.7 0.67082 0.447214
392 2 0.6 0.760263 0.491935
393 1 0.75 0.737902 0.424853
394 1 0.65 0.827345 0.469574
395 2 0.6 0.715542 0.357771
396 2 0.7 0.760263 0.268328
397 2 0.7 0.804984 0.402492
398 2 0.6 0.849706 0.31305
399 1 0.65 0.782624 0.33541
400 1 0.75 0.827345 0.245967
401 1 0.75 0.872067 0.380132
402 1 0.65 0.916788 0.290689
403 2 0.6 0.804984 0.178885
404 2 0.7 0.849706 0.0894427
405 2 0.7 0.894427 0.223607
406 2 0.6 0.939149 0.134164
407 1 0.65 0.872067 0.156525
408 1 0.75 0.916788 0.067082
409 1 0.75 0.961509 0.201246
410 2 0.6 0.894427 0
411 2 0.7 0.98387 0.0447214
412 2 0.6 0.894427 0.447214
413 2 0.7 0.939149 0.357771
414 2 0.7 0.98387 0.491935
415 1 0.65 0.961509 0.424853
416 2 0.6 0.98387 0.268328
417 1 0.85 0.0223607 0.290689
418 2 0.9 0 0.223607
419 2 0.8 0.0447214 0.134164
420 1 0.95 0.0223607 0.067082
421 1 0.95 0.067082 0.201246
422 1 0.85 0.111803 0.111803
423 2 0.8 0 0
424 2 0.9 0.0894427 0.0447214
425 1 0.95 0.156525 0.0223607
426 2 0.8 0 0.447214
427 2 0.9 0.0447214 0.357771
428 2 0.9 0.0894427 0.491935
429 2 0.8 0.134164 0.402492
430 1 0.85 0.067082 0.424853
431 1 0.95 0.111803 0.33541
432 1 0.95 0.156525 0.469574
433 1 0.85 0.201246 0.380132
434 2 0.8 0.0894427 0.268328
435 2 0.9 0.134164 0.178885
436 2 0.9 0.178885 0.31305
437 2 0.8 0.223607 0.223607
438 1 0.85 0.156525 0.245967
439 1 0.95 0.201246 0.156525
440 1 0.95 0.245967 0.290689
441 1 0.85 0.290689 0.201246
442 2 0.8 0.178885 0.0894427
443 2 0.9 0.223607 0
444 2 0.9 0.268328 0.134164
445 2 0.8 0.31305 0.0447214
446 1 0.85 0.245967 0.067082
447 1 0.95 0.33541 0.111803
448 1 0.85 0.380132 0.0223607
449 2 0.9 0.223607 0.447214
450 2 0.8 0.31305 0.491935
451 1 0.95 0.290689 0.424853
452 1 0.85 0.380132 0.469574
453 2 0.8 0.268328 0.357771
454 2 0.9 0.31305 0.268328
455 2 0.9 0.357771 0.402492
456 2 0.8 0.402492 0.31305
457 1 0.85 0.33541 0.33541
458 1 0.95 0.380132 0.245967
459 1 0.95 0.424853 0.380132
460 1 0.85 0.469574 0.290689
461 2 0.8 0.357771 0.178885
462 2 0.9 0.402492 0.0894427
463 2 0.9 0.447214 0.223607
464 2 0.8 0.491935 0.134164
465 1 0.85 0.424853 0.156525
466 1 0.95 0.469574 0.067082
467 1 0.95 0.514296 0.201246
468 1 0.85 0.559017 0.111803
469 2 0.8 0.447214 0
470 2 0.9 0.536656 0.0447214
471 1 0.95 0.603738 0.0223607
472 2 0.8 0.447214 0.447214
473 2 0.9 0.491935 0.357771
474 2 0.9 0.536656 0.491935
475 2 0.8 0.581378 0.402492
476 1 0.85 0.514296 0.424853
477 1 0.95 0.559017 0.33541
478 1 0.95 0.603738 0.469574
479 1 0.85 0.64846 0.380132
480 2 0.8 0.536656 0.268328
481 2 0.9 0.581378 0.178885
482 2 0.9 0.626099 0.31305
483 2 0.8 0.67082 0.223607
484 1 0.85 0.603738 0.245967
485 1 0.95 0.64846 0.156525
486 1 0.95 0.693181 0.290689
487 1 0.85 0.737902 0.201246
488 2 0.8 0.626099 0.0894427
489 2 0.9 0.67082 0
490 2 0.9 0.715542 0.134164
491 2 0.8 0.760263 0.0447214
492 1 0.85 0.693181 0.067082
493 1 0.95 0.782624 0.111803
494 1 0.85 0.827345 0.0223607
495 2 0.9 0.67082 0.447214
496 2 0.8 0.760263 0.491935
497 1 0.95 0.737902 0.424853
498 1 0.85 0.827345 0.469574
499 2 0.8 0.715542 0.357771
500 2 0.9 0.760263 0.268328
501 2 0.9 0.804984 0.402492
502 2 0.8 0.849706 0.31305
503 1 0.85 0.782624 0.33541
504 1 0.95 0.827345 0.245967
505 1 0.95 0.872067 0.380132
506 1 0.85 0.916788 0.290689
507 2 0.8 0.804984 0.178885
508 2 0.9 0.849706 0.0894427
509 2 0.9 0.894427 0.223607
510 2 0.8 0.939149 0.134164
511 1 0.85 0.872067 0.156525
512 1 0.95 0.916788 0.067082
513 1 0.95 0.961509 0.201246
514 2 0.8 0.894427 0
515 2 0.9 0.98387 0.0447214
516 2 0.8 0.894427 0.447214
517 2 0.9 0.939149 0.357771
518 2 0.9 0.98387 0.491935
519 1 0.85 0.961509 0.424853
520 2 0.8 0.98387 0.268328
