ITEM: TIMESTEP
0
ITEM: NUMBER OF ATOMS
62
ITEM: BOX BOUNDS pp pp pp
0.0000000000000000e+00 8.7200000000000006e+00
0.0000000000000000e+00 8.7200000000000006e+00
0.0000000000000000e+00 8.7200000000000006e+00
ITEM: ATOMS id type xs ys zs
1 2 0 0 0
3 2 0 0.25 0.25
4 2 0.25 0.25 0
5 1 0.125 0.125 0.125
6 1 0.375 0.125 0.375
7 1 0.125 0.375 0.375
8 1 0.375 0.375 0.125
9 2 0.5 0 0
10 2 0.75 0 0.25
11 2 0.5 0.25 0.25
12 2 0.75 0.25 0
13 1 0.625 0.125 0.125
14 1 0.875 0.125 0.375
15 1 0.625 0.375 0.375
16 1 0.875 0.375 0.125
17 2 0 0.5 0
18 2 0.25 0.5 0.25
19 2 0 0.75 0.25
20 2 0.25 0.75 0
21 1 0.125 0.625 0.125
22 1 0.375 0.625 0.375
23 1 0.125 0.875 0.375
24 1 0.375 0.875 0.125
25 2 0.5 0.5 0
26 2 0.75 0.5 0.25
27 2 0.5 0.75 0.25
28 2 0.75 0.75 0
29 1 0.625 0.625 0.125
30 1 0.875 0.625 0.375
31 1 0.625 0.875 0.375
32 1 0.875 0.875 0.125
33 2 0 0 0.5
34 2 0.25 0 0.75
35 2 0 0.25 0.75
36 2 0.25 0.25 0.5
37 1 0.125 0.125 0.625
38 1 0.375 0.125 0.875
39 1 0.125 0.375 0.875
40 1 0.375 0.375 0.625
41 2 0.5 0 0.5
42 2 0.75 0 0.75
43 2 0.5 0.25 0.75
44 2 0.75 0.25 0.5
45 1 0.625 0.125 0.625
46 1 0.875 0.125 0.875
47 1 0.625 0.375 0.875
48 1 0.875 0.375 0.625
49 2 0 0.5 0.5
50 2 0.25 0.5 0.75
51 2 0 0.75 0.75
52 2 0.25 0.75 0.5
53 1 0.125 0.625 0.625
55 1 0.125 0.875 0.875
56 1 0.375 0.875 0.625
2 1 0.875 0.875 0.625
54 1 0.625 0.875 0.875
57 2 0.5 0.5 0.5
58 2 0.75 0.5 0.75
59 2 0.5 0.75 0.75
60 2 0.75 0.75 0.5
61 1 0.625 0.625 0.625
62 1 0.875 0.625 0.875
ITEM: TIMESTEP
10
ITEM: NUMBER OF ATOMS
62
ITEM: BOX BOUNDS pp pp pp
1.7615711489185060e-03 8.7182384288510821e+00
1.7615711489185060e-03 8.7182384288510821e+00
1.7615711489185060e-03 8.7182384288510821e+00
ITEM: ATOMS id type xs ys zs
1 2 -0.000891099 0.000801029 0.0010359
3 2 0.000617731 0.250243 0.250963
4 2 0.250662 0.249674 -0.000663476
5 1 0.124647 0.125512 0.125712
6 1 0.374507 0.124841 0.374342
7 1 0.124663 0.374569 0.375553
8 1 0.374564 0.375688 0.124616
9 2 0.50097 0.00105735 -0.000411927
10 2 0.750302 8.86787e-05 0.249332
11 2 0.500924 0.249678 0.251088
12 2 0.751025 0.251033 -0.000997821
13 1 0.625636 0.125635 0.124802
14 1 0.874426 0.12535 0.375138
15 1 0.624629 0.374585 0.375749
16 1 0.874725 0.375106 0.125324
17 2 0.000245405 0.500058 -0.000260568
18 2 0.25023 0.499665 0.250522
19 2 -0.00082408 0.75014 0.249002
20 2 0.250045 0.749437 0.000502019
21 1 0.125675 0.6248 0.125186
22 1 0.374953 0.624464 0.374486
23 1 0.12507 0.874448 0.374514
24 1 0.374944 0.87463 0.124592
25 2 0.500282 0.499002 0.000640879
26 2 0.750196 0.499829 0.249535
27 2 0.500886 0.749338 0.249812
28 2 0.750315 0.750933 0.00109897
29 1 0.625013 0.625392 0.125285
30 1 0.874583 0.624775 0.374902
31 1 0.62544 0.875124 0.374694
32 1 0.874808 0.874762 0.125225
33 2 -0.000799513 -4.19877e-05 0.500504
34 2 0.248986 -0.00102916 0.749879
35 2 0.000318296 0.249961 0.750406
36 2 0.249045 0.250497 0.498985
37 1 0.125427 0.125411 0.625648
38 1 0.375265 0.12482 0.874502
39 1 0.125413 0.375781 0.874779
40 1 0.374902 0.374474 0.62447
41 2 0.499492 0.000702805 0.498943
42 2 0.749898 0.000708456 0.750517
43 2 0.499654 0.250509 0.749247
44 2 0.748939 0.250963 0.500388
45 1 0.625579 0.124646 0.62558
46 1 0.874964 0.12477 0.874711
47 1 0.625468 0.375268 0.875575
48 1 0.875041 0.375245 0.625652
49 2 0.000913618 0.49944 0.500613
50 2 0.250302 0.499962 0.75039
51 2 -8.98502e-05 0.750556 0.750803
52 2 0.2489 0.749251 0.499613
53 1 0.124669 0.625413 0.624395
55 1 0.124405 0.874495 0.874692
56 1 0.374489 0.874472 0.624656
2 1 0.874323 0.874339 0.624352
54 1 0.625642 0.875207 0.875106
57 2 0.500515 0.499642 0.500065
58 2 0.749624 0.500927 0.749657
59 2 0.499613 0.749281 0.751027
60 2 0.750968 0.74899 0.500619
61 1 0.625552 0.62526 0.62491
62 1 0.875039 0.625166 0.874633
ITEM: TIMESTEP
20
ITEM: NUMBER OF ATOMS
62
ITEM: BOX BOUNDS pp pp pp
6.8803675315454171e-03 8.7131196324684552e+00
6.8803675315454171e-03 8.7131196324684552e+00
6.8803675315454171e-03 8.7131196324684552e+00
ITEM: ATOMS id type xs ys zs
1 2 -0.00174492 0.00155778 0.00207552
3 2 0.00123342 0.250465 0.251941
4 2 0.251334 0.249337 -0.00129418
5 1 0.124263 0.12606 0.126385
6 1 0.374047 0.12472 0.37372
7 1 0.12433 0.374146 0.376102
8 1 0.374103 0.376388 0.124216
9 2 0.501906 0.00212127 -0.000796272
10 2 0.750601 0.000180893 0.248676
11 2 0.501803 0.249348 0.252122
12 2 0.752037 0.252048 -0.00197531
13 1 0.626274 0.126271 0.124601
14 1 0.873853 0.125701 0.375278
15 1 0.624262 0.374177 0.376493
16 1 0.874461 0.375212 0.125644
17 2 0.000488583 0.500119 -0.000513568
18 2 0.250449 0.499329 0.251037
19 2 -0.00161018 0.75029 0.247997
20 2 0.249856 0.749107 0.00121456
21 1 0.126367 0.624568 0.125349
22 1 0.37491 0.62393 0.373978
23 1 0.125096 0.873865 0.374064
24 1 0.374964 0.874204 0.124124
25 2 0.500777 0.497821 0.0014854
26 2 0.750377 0.499656 0.249087
27 2 0.501732 0.748712 0.249654
28 2 0.750626 0.751845 0.0021742
29 1 0.625005 0.625808 0.125541
30 1 0.874175 0.624545 0.374804
31 1 0.62588 0.875244 0.37439
32 1 0.874617 0.874531 0.125449
33 2 -0.00156265 -5.76423e-05 0.500976
34 2 0.247993 -0.00204355 0.74976
35 2 0.000634388 0.249929 0.750811
36 2 0.248085 0.250953 0.497969
37 1 0.125847 0.125817 0.626289
38 1 0.375527 0.124638 0.874002
39 1 0.125848 0.376578 0.874593
40 1 0.374835 0.373978 0.623964
41 2 0.498973 0.00136009 0.497887
42 2 0.749804 0.00139219 0.751018
43 2 0.499323 0.251007 0.748511
44 2 0.747902 0.251906 0.500782
45 1 0.626149 0.124298 0.626153
46 1 0.874932 0.124547 0.874426
47 1 0.625907 0.375563 0.876108
48 1 0.875082 0.375489 0.626303
49 2 0.00180031 0.49889 0.501213
50 2 0.250401 0.499732 0.750557
51 2 -0.000187393 0.751097 0.751576
52 2 0.247848 0.748531 0.499199
53 1 0.124363 0.625852 0.623825
55 1 0.123834 0.873971 0.874366
56 1 0.373946 0.873919 0.624335
2 1 0.87365 0.873684 0.623717
54 1 0.626257 0.875391 0.875245
57 2 0.501018 0.499293 0.500131
58 2 0.749258 0.50184 0.749327
59 2 0.499432 0.748772 0.751841
60 2 0.751909 0.748 0.501215
61 1 0.626072 0.625486 0.624845
62 1 0.875076 0.625336 0.874273
ITEM: TIMESTEP
30
ITEM: NUMBER OF ATOMS
62
ITEM: BOX BOUNDS pp pp pp
1.4850477885572033e-02 8.7051495221144286e+00
1.4850477885572033e-02 8.7051495221144286e+00
1.4850477885572033e-02 8.7051495221144286e+00
ITEM: ATOMS id type xs ys zs
1 2 -0.00254613 0.00225333 0.0031016
3 2 0.0018233 0.250667 0.252923
4 2 0.252 0.248998 -0.00188151
5 1 0.123852 0.126642 0.127014
6 1 0.373617 0.12464 0.373132
7 1 0.124002 0.373737 0.376643
8 1 0.373626 0.377088 0.123806
9 2 0.502794 0.00317252 -0.0011475
10 2 0.750893 0.000280297 0.248044
11 2 0.502614 0.24902 0.253072
12 2 0.753024 0.253026 -0.00291276
13 1 0.626917 0.126912 0.124398
14 1 0.873283 0.126054 0.375424
15 1 0.623905 0.373782 0.377225
16 1 0.874218 0.375319 0.125958
17 2 0.000727458 0.500186 -0.000751579
18 2 0.250644 0.49899 0.251536
19 2 -0.00234202 0.750434 0.247005
20 2 0.249433 0.749019 0.00212141
21 1 0.127068 0.6243 0.125489
22 1 0.374874 0.623398 0.373483
23 1 0.125073 0.873256 0.373649
24 1 0.375067 0.873725 0.123598
25 2 0.501491 0.496477 0.00253149
26 2 0.750529 0.499482 0.248676
27 2 0.502517 0.748137 0.249529
28 2 0.750927 0.752716 0.00320205
29 1 0.624979 0.626243 0.125764
30 1 0.873785 0.624305 0.374707
31 1 0.62632 0.875358 0.37409
32 1 0.874429 0.874316 0.125672
33 2 -0.00227551 -4.68439e-05 0.501405
34 2 0.247043 -0.0030293 0.749647
35 2 0.000946239 0.24991 0.751214
36 2 0.24714 0.25135 0.496974
37 1 0.126253 0.126214 0.626915
38 1 0.375786 0.124453 0.873497
39 1 0.126305 0.377381 0.874446
40 1 0.374794 0.373518 0.623479
41 2 0.498452 0.00195275 0.496853
42 2 0.749727 0.00202656 0.751491
43 2 0.49902 0.25148 0.747807
44 2 0.746915 0.252809 0.501188
45 1 0.626697 0.123963 0.626713
46 1 0.874907 0.124338 0.874149
47 1 0.626312 0.375885 0.876588
48 1 0.875121 0.375733 0.626949
49 2 0.00263347 0.498363 0.501789
50 2 0.250302 0.499325 0.750485
51 2 -0.00030057 0.751609 0.752292
52 2 0.246869 0.747846 0.498752
53 1 0.124085 0.626314 0.6233
55 1 0.12329 0.873434 0.874034
56 1 0.373374 0.873342 0.624035
2 1 0.872988 0.873044 0.623108
54 1 0.626842 0.875554 0.87542
57 2 0.501497 0.498962 0.500198
58 2 0.748913 0.502725 0.749023
59 2 0.499459 0.748475 0.752433
60 2 0.752799 0.747046 0.501766
61 1 0.626554 0.625675 0.624806
62 1 0.87511 0.625512 0.87393
ITEM: TIMESTEP
40
ITEM: NUMBER OF ATOMS
62
ITEM: BOX BOUNDS pp pp pp
2.4861662956537245e-02 8.6951383370434669e+00
2.4861662956537245e-02 8.6951383370434669e+00
2.4861662956537245e-02 8.6951383370434669e+00
ITEM: ATOMS id type xs ys zs
1 2 -0.00328019 0.00287238 0.00409715
3 2 0.00236308 0.25085 0.253895
4 2 0.252644 0.248668 -0.00241596
5 1 0.123419 0.127256 0.127597
6 1 0.373213 0.124601 0.372575
7 1 0.123684 0.37335 0.37717
8 1 0.373139 0.377775 0.123394
9 2 0.503622 0.00419205 -0.00146086
10 2 0.751175 0.000390708 0.247448
11 2 0.503336 0.248708 0.253914
12 2 0.753975 0.253948 -0.00379144
13 1 0.627566 0.127557 0.124189
14 1 0.872718 0.126411 0.375576
15 1 0.623561 0.373409 0.37794
16 1 0.874006 0.375425 0.12626
17 2 0.000960052 0.50026 -0.000967339
18 2 0.250803 0.498648 0.252012
19 2 -0.00300394 0.750558 0.246048
20 2 0.248775 0.749177 0.00320483
21 1 0.127769 0.623997 0.125607
22 1 0.374851 0.622872 0.373007
23 1 0.124994 0.872628 0.37327
24 1 0.37526 0.873199 0.123017
25 2 0.502431 0.494996 0.00377541
26 2 0.750635 0.499308 0.248318
27 2 0.503222 0.747626 0.249442
28 2 0.751212 0.753523 0.00415904
29 1 0.624939 0.626687 0.12595
30 1 0.873422 0.624051 0.37461
31 1 0.62676 0.875461 0.373797
32 1 0.874245 0.874125 0.125893
33 2 -0.00292548 -9.7324e-06 0.501783
34 2 0.246156 -0.00397356 0.749542
35 2 0.00125199 0.249912 0.751615
36 2 0.246235 0.251668 0.496023
37 1 0.126636 0.126597 0.627521
38 1 0.376039 0.124263 0.872986
39 1 0.126781 0.378183 0.87434
40 1 0.374779 0.373101 0.623014
41 2 0.497939 0.00246237 0.495863
42 2 0.749673 0.00258719 0.751923
43 2 0.49876 0.251919 0.747152
44 2 0.746002 0.253654 0.501615
45 1 0.627215 0.123647 0.627254
46 1 0.874894 0.124148 0.873883
47 1 0.62668 0.376237 0.877006
48 1 0.875158 0.375976 0.627589
49 2 0.00338693 0.497868 0.502331
50 2 0.250009 0.498755 0.750159
51 2 -0.000437449 0.752076 0.752921
52 2 0.245984 0.747203 0.498269
53 1 0.123836 0.626793 0.622832
55 1 0.122774 0.87289 0.873711
56 1 0.372772 0.87274 0.623756
2 1 0.872341 0.872426 0.622538
54 1 0.627394 0.875699 0.875632
57 2 0.501939 0.498658 0.500268
58 2 0.748599 0.503567 0.74876
59 2 0.499694 0.748392 0.752796
60 2 0.753611 0.746146 0.502251
61 1 0.62699 0.625825 0.624794
62 1 0.875139 0.6257 0.873611
ITEM: TIMESTEP
50
ITEM: NUMBER OF ATOMS
62
ITEM: BOX BOUNDS pp pp pp
3.5869316473092994e-02 8.6841306835269059e+00
3.5869316473092994e-02 8.6841306835269059e+00
3.5869316473092994e-02 8.6841306835269059e+00
ITEM: ATOMS id type xs ys zs
1 2 -0.00393335 0.00340149 0.00504544
3 2 0.00282828 0.251015 0.254845
4 2 0.253249 0.248358 -0.00288924
5 1 0.122971 0.1279 0.128132
6 1 0.372832 0.124605 0.372048
7 1 0.123377 0.372993 0.37768
8 1 0.372649 0.378436 0.122987
9 2 0.504382 0.00516116 -0.00173237
10 2 0.751442 0.000516133 0.246899
11 2 0.503948 0.24842 0.254623
12 2 0.754876 0.254797 -0.00459393
13 1 0.628223 0.12821 0.123973
14 1 0.872159 0.126771 0.375737
15 1 0.623234 0.373064 0.378632
16 1 0.873836 0.375532 0.126549
17 2 0.00118444 0.500345 -0.00115381
18 2 0.250914 0.4983 0.252456
19 2 -0.00358119 0.750648 0.245147
20 2 0.247883 0.749588 0.00444542
21 1 0.12846 0.623658 0.125707
22 1 0.374842 0.622352 0.372558
23 1 0.124854 0.871987 0.372924
24 1 0.375548 0.87263 0.122383
25 2 0.503602 0.493405 0.0052118
26 2 0.750684 0.499133 0.248029
27 2 0.50383 0.747194 0.249396
28 2 0.751475 0.754246 0.00502217
29 1 0.624889 0.627134 0.126095
30 1 0.873095 0.623778 0.374513
31 1 0.627199 0.875552 0.373512
32 1 0.874069 0.873967 0.12611
33 2 -0.00350123 5.32403e-05 0.5021
34 2 0.245353 -0.0048646 0.749447
35 2 0.00154999 0.24994 0.752012
36 2 0.245393 0.251887 0.495138
37 1 0.126992 0.126962 0.628099
38 1 0.376284 0.124067 0.872468
39 1 0.127273 0.378972 0.874279
40 1 0.374784 0.372729 0.622567
41 2 0.497442 0.00287161 0.494937
42 2 0.749652 0.00305045 0.752301
43 2 0.498555 0.252312 0.74656
44 2 0.745188 0.254419 0.502067
45 1 0.627693 0.123355 0.62777
46 1 0.874896 0.123985 0.873632
47 1 0.627006 0.376617 0.87735
48 1 0.875191 0.37622 0.628221
49 2 0.00403543 0.497416 0.502827
50 2 0.249529 0.498039 0.749564
51 2 -0.000605958 0.752483 0.753435
52 2 0.245215 0.74661 0.497745
53 1 0.123615 0.627284 0.622427
55 1 0.122285 0.872347 0.873411
56 1 0.372144 0.872114 0.623494
2 1 0.871718 0.871836 0.622019
54 1 0.627911 0.875828 0.875883
57 2 0.502332 0.498391 0.500342
58 2 0.748327 0.504354 0.74855
59 2 0.500135 0.748526 0.752926
60 2 0.754317 0.745313 0.502648
61 1 0.627374 0.625935 0.624808
62 1 0.875161 0.6259 0.873324
ITEM: TIMESTEP
60
ITEM: NUMBER OF ATOMS
62
ITEM: BOX BOUNDS pp pp pp
4.6380711342235870e-02 8.6736192886577594e+00
4.6380711342235870e-02 8.6736192886577594e+00
4.6380711342235870e-02 8.6736192886577594e+00
ITEM: ATOMS id type xs ys zs
1 2 -0.00449286 0.00382936 0.00593007
3 2 0.00319473 0.251164 0.255761
4 2 0.253801 0.248077 -0.00329448
5 1 0.122512 0.128572 0.128615
6 1 0.372468 0.12465 0.371548
7 1 0.123083 0.372675 0.378167
8 1 0.372198 0.379019 0.122591
9 2 0.505063 0.00606176 -0.00195879
10 2 0.751692 0.000660733 0.246411
11 2 0.504435 0.248169 0.255176
12 2 0.755717 0.255558 -0.00530462
13 1 0.628888 0.128871 0.123749
14 1 0.871609 0.127136 0.375911
15 1 0.622927 0.372754 0.379295
16 1 0.873718 0.375638 0.126822
17 2 0.00139863 0.500445 -0.00130436
18 2 0.250967 0.497945 0.252862
19 2 -0.00406021 0.750686 0.244323
20 2 0.246759 0.750255 0.00582226
21 1 0.129097 0.623318 0.12579
22 1 0.374854 0.621841 0.372141
23 1 0.124649 0.871338 0.37261
24 1 0.375939 0.872026 0.121701
25 2 0.505008 0.491734 0.0068336
26 2 0.750661 0.498961 0.247824
27 2 0.504322 0.746853 0.249393
28 2 0.751707 0.754864 0.00576936
29 1 0.624835 0.627575 0.126197
30 1 0.872812 0.623482 0.374416
31 1 0.627636 0.875628 0.373237
32 1 0.873901 0.873848 0.126323
33 2 -0.00399284 0.000141205 0.502348
34 2 0.244652 -0.00569193 0.749364
35 2 0.00183881 0.250002 0.752408
36 2 0.24464 0.251991 0.494343
37 1 0.127313 0.127304 0.628644
38 1 0.376521 0.123864 0.87194
39 1 0.127779 0.379739 0.874266
40 1 0.374808 0.372408 0.622134
41 2 0.496969 0.00316465 0.494095
42 2 0.749669 0.00339419 0.752618
43 2 0.498416 0.25265 0.746046
44 2 0.744497 0.255086 0.502554
45 1 0.628119 0.123093 0.628253
46 1 0.874919 0.123853 0.8734
47 1 0.627288 0.377027 0.877614
48 1 0.875221 0.376462 0.628845
49 2 0.00455512 0.497019 0.50327
50 2 0.248871 0.497194 0.748687
51 2 -0.000813432 0.752815 0.753808
52 2 0.244582 0.746071 0.497177
53 1 0.123423 0.627781 0.622095
55 1 0.121825 0.871812 0.873145
56 1 0.37149 0.871466 0.623248
2 1 0.871143 0.871304 0.621563
54 1 0.628391 0.875944 0.876172
57 2 0.502664 0.49817 0.500422
58 2 0.748105 0.505071 0.748405
59 2 0.50078 0.748876 0.752819
60 2 0.754894 0.744562 0.502935
61 1 0.627678 0.625983 0.624848
62 1 0.875175 0.626116 0.873075
ITEM: TIMESTEP
70
ITEM: NUMBER OF ATOMS
62
ITEM: BOX BOUNDS pp pp pp
5.3923873442125902e-02 8.6660761265578650e+00
5.3923873442125902e-02 8.6660761265578650e+00
5.3923873442125902e-02 8.6660761265578650e+00
ITEM: ATOMS id type xs ys zs
1 2 -0.00494726 0.00414721 0.00673501
3 2 0.00343942 0.251299 0.256629
4 2 0.254285 0.247834 -0.00362662
5 1 0.122049 0.129267 0.129046
6 1 0.37212 0.124737 0.371073
7 1 0.122806 0.372403 0.378627
8 1 0.371873 0.37943 0.12221
9 2 0.505659 0.00687669 -0.00213778
10 2 0.751919 0.00082867 0.245993
11 2 0.50478 0.247964 0.255557
12 2 0.756487 0.256215 -0.00591039
13 1 0.62955 0.129527 0.123515
14 1 0.871069 0.127506 0.376099
15 1 0.622671 0.372483 0.379895
16 1 0.873672 0.375758 0.127076
17 2 0.00160008 0.500562 -0.00141314
18 2 0.250952 0.497583 0.253231
19 2 -0.00442947 0.750656 0.243597
20 2 0.245409 0.751183 0.00731303
21 1 0.129583 0.623058 0.125854
22 1 0.374894 0.621345 0.371771
23 1 0.124376 0.870689 0.372325
24 1 0.376436 0.871391 0.120974
25 2 0.506652 0.490013 0.00863158
26 2 0.750555 0.498793 0.247716
27 2 0.504683 0.746615 0.249437
28 2 0.751903 0.75536 0.00638026
29 1 0.624782 0.628003 0.126255
30 1 0.87258 0.62316 0.374318
31 1 0.628061 0.875687 0.372965
32 1 0.873745 0.873777 0.12653
33 2 -0.00439201 0.000252802 0.502521
34 2 0.244071 -0.00644632 0.749295
35 2 0.00211724 0.250104 0.752802
36 2 0.244 0.251964 0.493662
37 1 0.127591 0.127618 0.629147
38 1 0.37675 0.123652 0.871406
39 1 0.128293 0.380474 0.874302
40 1 0.374821 0.372141 0.621741
41 2 0.496529 0.00332797 0.493355
42 2 0.749731 0.00359891 0.752863
43 2 0.498354 0.252924 0.745624
44 2 0.743951 0.255639 0.503079
45 1 0.628478 0.122865 0.62869
46 1 0.874974 0.123758 0.873198
47 1 0.627524 0.377463 0.877787
48 1 0.875247 0.376704 0.629457
49 2 0.00492449 0.496685 0.503651
50 2 0.248042 0.496239 0.747516
51 2 -0.00106575 0.753058 0.754017
52 2 0.244103 0.745593 0.496563
53 1 0.123246 0.628264 0.621842
55 1 0.1214 0.871297 0.872927
56 1 0.370827 0.87081 0.623017
2 1 0.870704 0.870909 0.621187
54 1 0.628832 0.876048 0.8765
57 2 0.502925 0.498005 0.50051
58 2 0.747944 0.505705 0.748339
59 2 0.501624 0.749443 0.75247
60 2 0.755318 0.743902 0.503089
61 1 0.627826 0.625897 0.624913
62 1 0.875175 0.626345 0.872873
ITEM: TIMESTEP
80
ITEM: NUMBER OF ATOMS
62
ITEM: BOX BOUNDS pp pp pp
5.4419365843274115e-02 8.6655806341567185e+00
5.4419365843274115e-02 8.6655806341567185e+00
5.4419365843274115e-02 8.6655806341567185e+00
ITEM: ATOMS id type xs ys zs
1 2 -0.00528698 0.00434933 0.00744492
3 2 0.00354225 0.251422 0.257436
4 2 0.254688 0.247634 -0.00388259
5 1 0.121587 0.129977 0.129416
6 1 0.371783 0.124864 0.370619
7 1 0.122546 0.37219 0.37906
8 1 0.371756 0.379579 0.121849
9 2 0.506165 0.00759003 -0.00226846
10 2 0.752119 0.00102382 0.245657
11 2 0.504972 0.247814 0.25575
12 2 0.757176 0.256758 -0.00640246
13 1 0.630159 0.130133 0.123272
14 1 0.870543 0.127879 0.376304
15 1 0.622526 0.372258 0.380369
16 1 0.873753 0.375937 0.12731
17 2 0.00178579 0.500699 -0.00147578
18 2 0.250862 0.497212 0.253565
19 2 -0.00468103 0.750546 0.24299
20 2 0.243839 0.752373 0.00889438
21 1 0.129827 0.622929 0.125869
22 1 0.374997 0.620892 0.371512
23 1 0.124031 0.870066 0.372048
24 1 0.377015 0.870759 0.120207
25 2 0.508533 0.488273 0.0105933
26 2 0.75036 0.498632 0.247715
27 2 0.504902 0.746488 0.249525
28 2 0.752056 0.755717 0.00683754
29 1 0.624762 0.628381 0.126269
30 1 0.872407 0.622809 0.374219
31 1 0.628419 0.875728 0.372678
32 1 0.873619 0.873759 0.126715
33 2 -0.00469174 0.000386539 0.502613
34 2 0.243624 -0.00712019 0.749242
35 2 0.00238423 0.25025 0.753194
36 2 0.243495 0.251796 0.493114
37 1 0.127773 0.127883 0.629576
38 1 0.376997 0.123432 0.870893
39 1 0.128785 0.381168 0.874362
40 1 0.374781 0.371949 0.621441
41 2 0.496128 0.00335131 0.492734
42 2 0.749842 0.00364883 0.753033
43 2 0.498376 0.253128 0.745304
44 2 0.743568 0.256061 0.503649
45 1 0.628717 0.122674 0.629032
46 1 0.87511 0.123704 0.873075
47 1 0.627714 0.377921 0.877866
48 1 0.875268 0.376944 0.630055
49 2 0.00512577 0.496425 0.503964
50 2 0.247052 0.495191 0.746045
51 2 -0.00136645 0.753199 0.754043
52 2 0.243792 0.745179 0.495903
53 1 0.123025 0.628652 0.621694
55 1 0.12105 0.870849 0.872767
56 1 0.370219 0.870205 0.622798
2 1 0.870491 0.870707 0.620939
54 1 0.629232 0.876143 0.876864
57 2 0.503103 0.497904 0.500606
58 2 0.747849 0.506244 0.748361
59 2 0.502662 0.750225 0.75188
60 2 0.75557 0.743341 0.503093
61 1 0.627762 0.625626 0.625005
62 1 0.87512 0.626549 0.872724
ITEM: TIMESTEP
90
ITEM: NUMBER OF ATOMS
62
ITEM: BOX BOUNDS pp pp pp
4.5517047524399779e-02 8.6744829524755929e+00
4.5517047524399779e-02 8.6744829524755929e+00
4.5517047524399779e-02 8.6744829524755929e+00
ITEM: ATOMS id type xs ys zs
1 2 -0.00550515 0.00443419 0.00804643
3 2 0.00348833 0.251536 0.25817
4 2 0.255001 0.247485 -0.0040619
5 1 0.121129 0.130679 0.129703
6 1 0.371459 0.125029 0.370189
7 1 0.122305 0.372058 0.379482
8 1 0.371888 0.379432 0.121524
9 2 0.506576 0.00818785 -0.0023518
10 2 0.752289 0.00124925 0.245411
11 2 0.505007 0.247727 0.255748
12 2 0.757775 0.257179 -0.00677512
13 1 0.630686 0.130659 0.123018
14 1 0.870041 0.128248 0.376526
15 1 0.622513 0.372087 0.380687
16 1 0.873989 0.376202 0.127524
17 2 0.00195346 0.500859 -0.00149019
18 2 0.250695 0.496833 0.253859
19 2 -0.00481255 0.750345 0.242519
20 2 0.24206 0.753824 0.0105439
21 1 0.129797 0.622942 0.125825
22 1 0.375179 0.6205 0.371396
23 1 0.123614 0.8695 0.371752
24 1 0.377632 0.870183 0.119405
25 2 0.510644 0.486541 0.0127027
26 2 0.750073 0.498482 0.247825
27 2 0.504973 0.746474 0.249658
28 2 0.752162 0.755925 0.00712908
29 1 0.624829 0.628659 0.126243
30 1 0.872297 0.622429 0.374118
31 1 0.628667 0.875752 0.372388
32 1 0.873551 0.873798 0.126851
33 2 -0.00488735 0.000540993 0.50262
34 2 0.243321 -0.00770724 0.749205
35 2 0.00263864 0.250443 0.753583
36 2 0.243141 0.251481 0.492715
37 1 0.127814 0.128075 0.629903
38 1 0.377284 0.123202 0.870428
39 1 0.129224 0.381812 0.874421
40 1 0.374676 0.371847 0.621258
41 2 0.49577 0.00322982 0.492242
42 2 0.750006 0.00353587 0.753125
43 2 0.498486 0.25326 0.745096
44 2 0.743361 0.256344 0.504262
45 1 0.628809 0.122523 0.629254
46 1 0.875349 0.123692 0.873052
47 1 0.627857 0.378395 0.877845
48 1 0.875284 0.377173 0.63063
49 2 0.00514653 0.496246 0.504206
50 2 0.245909 0.494065 0.744274
51 2 -0.0017155 0.753233 0.753875
52 2 0.243655 0.74483 0.495199
53 1 0.12272 0.628874 0.62168
55 1 0.120807 0.870508 0.872674
56 1 0.369709 0.869695 0.622592
2 1 0.870527 0.870707 0.620837
54 1 0.629588 0.876231 0.877263
57 2 0.50319 0.497872 0.500711
58 2 0.747824 0.506677 0.748477
59 2 0.503887 0.751217 0.751046
60 2 0.755639 0.742886 0.502941
61 1 0.627483 0.62517 0.625121
62 1 0.874979 0.626705 0.87264
ITEM: TIMESTEP
100
ITEM: NUMBER OF ATOMS
62
ITEM: BOX BOUNDS pp pp pp
2.9555059381427995e-02 8.6904449406185655e+00
2.9555059381427995e-02 8.6904449406185655e+00
2.9555059381427995e-02 8.6904449406185655e+00
ITEM: ATOMS id type xs ys zs
1 2 -0.00559806 0.00440505 0.00852965
3 2 0.0032709 0.251645 0.258822
4 2 0.255221 0.247391 -0.00416685
5 1 0.120677 0.131379 0.129913
6 1 0.37115 0.12523 0.369784
7 1 0.122086 0.371999 0.379882
8 1 0.372234 0.379036 0.121263
9 2 0.506894 0.00865969 -0.00239071
10 2 0.752425 0.00150556 0.24526
11 2 0.504888 0.247704 0.255551
12 2 0.758279 0.257476 -0.00702343
13 1 0.631141 0.131115 0.122756
14 1 0.869566 0.12861 0.376768
15 1 0.622614 0.371971 0.380863
16 1 0.87437 0.376539 0.127717
17 2 0.00210266 0.501046 -0.00145697
18 2 0.250456 0.496451 0.254094
19 2 -0.00482832 0.750051 0.242194
20 2 0.240082 0.755529 0.0122435
21 1 0.129544 0.623069 0.125758
22 1 0.375409 0.620146 0.371371
23 1 0.123124 0.868977 0.371454
24 1 0.378274 0.869677 0.11857
25 2 0.512973 0.484834 0.0149425
26 2 0.7497 0.498345 0.248047
27 2 0.504895 0.746571 0.249827
28 2 0.75222 0.75598 0.00725017
29 1 0.624995 0.62882 0.126185
30 1 0.872251 0.622021 0.374017
31 1 0.628832 0.875757 0.372115
32 1 0.873535 0.873893 0.126944
33 2 -0.00497794 0.000714768 0.502542
34 2 0.243167 -0.0082013 0.749183
35 2 0.00287942 0.250685 0.753968
36 2 0.242948 0.251025 0.492477
37 1 0.127741 0.128208 0.630137
38 1 0.377595 0.122965 0.870001
39 1 0.129615 0.382398 0.874486
40 1 0.374509 0.371819 0.621172
41 2 0.495458 0.0029655 0.491884
42 2 0.750225 0.00326348 0.753139
43 2 0.498682 0.25332 0.745002
44 2 0.743334 0.256482 0.504915
45 1 0.628782 0.122411 0.629382
46 1 0.875663 0.123724 0.873102
47 1 0.627958 0.378879 0.877725
48 1 0.875296 0.377394 0.631183
49 2 0.00498085 0.496152 0.504374
50 2 0.244617 0.492874 0.742213
51 2 -0.00210834 0.753157 0.753518
52 2 0.24369 0.744547 0.494463
53 1 0.122336 0.628944 0.621777
55 1 0.120655 0.870266 0.872651
56 1 0.369299 0.86928 0.622398
2 1 0.870735 0.870856 0.620855
54 1 0.629902 0.876315 0.87769
57 2 0.503181 0.4979 0.500824
58 2 0.747868 0.506998 0.74869
59 2 0.50529 0.752415 0.749971
60 2 0.755521 0.742544 0.502644
61 1 0.627042 0.624584 0.625256
62 1 0.874763 0.626822 0.872619
ITEM: TIMESTEP
110
ITEM: NUMBER OF ATOMS
62
ITEM: BOX BOUNDS pp pp pp
1.1316161766928623e-02 8.7086838382330640e+00
1.1316161766928623e-02 8.7086838382330640e+00
1.1316161766928623e-02 8.7086838382330640e+00
ITEM: ATOMS id type xs ys zs
1 2 -0.0055656 0.00426919 0.00888837
3 2 0.00289055 0.251754 0.259384
4 2 0.25535 0.247359 -0.00420216
5 1 0.120229 0.132088 0.130057
6 1 0.37086 0.125466 0.369408
7 1 0.121888 0.371999 0.380247
8 1 0.372696 0.378478 0.121061
9 2 0.507121 0.00899895 -0.00238989
10 2 0.752523 0.00179166 0.245206
11 2 0.504624 0.247746 0.255165
12 2 0.758687 0.257654 -0.00714477
13 1 0.631561 0.13154 0.122486
14 1 0.869116 0.12897 0.377029
15 1 0.62278 0.371904 0.380948
16 1 0.874849 0.376907 0.127886
17 2 0.00223439 0.501262 -0.00137918
18 2 0.250153 0.496072 0.254253
19 2 -0.0047385 0.749666 0.24202
20 2 0.237918 0.75748 0.0139802
21 1 0.129158 0.623241 0.125693
22 1 0.375663 0.619814 0.371393
23 1 0.122562 0.86847 0.371186
24 1 0.378959 0.869223 0.117708
25 2 0.515505 0.483162 0.0172939
26 2 0.749255 0.498222 0.248374
27 2 0.504677 0.746769 0.25002
28 2 0.75223 0.755885 0.00720319
29 1 0.625243 0.628882 0.126102
30 1 0.872267 0.621587 0.373915
31 1 0.628971 0.875745 0.371861
32 1 0.873545 0.874043 0.127022
33 2 -0.00496641 0.000906052 0.502381
34 2 0.243162 -0.00859813 0.749175
35 2 0.0031057 0.250974 0.754346
36 2 0.242917 0.250437 0.492405
37 1 0.127607 0.128299 0.63031
38 1 0.377896 0.122723 0.869584
39 1 0.129987 0.382922 0.874588
40 1 0.37431 0.371841 0.62113
41 2 0.495192 0.00256614 0.491659
42 2 0.750496 0.00284316 0.753081
43 2 0.498957 0.253312 0.74502
44 2 0.743483 0.256476 0.505602
45 1 0.628675 0.122337 0.629456
46 1 0.876012 0.123797 0.873186
47 1 0.628021 0.379366 0.877511
48 1 0.875302 0.377612 0.631716
49 2 0.00462893 0.496143 0.504472
50 2 0.243176 0.491623 0.739878
51 2 -0.00253663 0.752975 0.752985
52 2 0.243885 0.744325 0.493712
53 1 0.121908 0.628923 0.621949
55 1 0.120549 0.870084 0.872698
56 1 0.36896 0.868931 0.622212
2 1 0.871004 0.871074 0.620958
54 1 0.630172 0.876397 0.878142
57 2 0.503075 0.497977 0.500941
58 2 0.747976 0.507205 0.748995
59 2 0.506864 0.753814 0.748656
60 2 0.755224 0.742318 0.502219
61 1 0.626524 0.623952 0.625406
62 1 0.874518 0.626938 0.872658
ITEM: TIMESTEP
120
ITEM: NUMBER OF ATOMS
62
ITEM: BOX BOUNDS pp pp pp
-5.9413187720904759e-03 8.7259413187720796e+00
-5.9413187720904759e-03 8.7259413187720796e+00
-5.9413187720904759e-03 8.7259413187720796e+00
ITEM: ATOMS id type xs ys zs
1 2 -0.00541095 0.00403674 0.00911892
3 2 0.00235372 0.251869 0.259853
4 2 0.255391 0.247391 -0.00417409
5 1 0.119785 0.132804 0.130133
6 1 0.370597 0.125734 0.369064
7 1 0.121712 0.372052 0.380577
8 1 0.373186 0.377835 0.120912
9 2 0.507261 0.00920231 -0.00235551
10 2 0.752581 0.00210584 0.245249
11 2 0.50423 0.247851 0.254602
12 2 0.759 0.257719 -0.00714124
13 1 0.631971 0.13196 0.122212
14 1 0.868693 0.129324 0.377309
15 1 0.622967 0.371884 0.380984
16 1 0.875392 0.377274 0.128031
17 2 0.00234957 0.501512 -0.00126156
18 2 0.249799 0.495702 0.254321
19 2 -0.00455689 0.749198 0.241996
20 2 0.235583 0.759665 0.0157435
21 1 0.128711 0.623387 0.125636
22 1 0.375938 0.619503 0.37146
23 1 0.121929 0.867975 0.370955
24 1 0.379717 0.868788 0.116824
25 2 0.51822 0.481526 0.0197346
26 2 0.748754 0.498115 0.248799
27 2 0.50433 0.747056 0.25022
28 2 0.752196 0.755647 0.00699585
29 1 0.625539 0.628879 0.126005
30 1 0.872341 0.621132 0.373813
31 1 0.62909 0.875716 0.371622
32 1 0.873572 0.874243 0.127093
33 2 -0.00485851 0.00111207 0.50214
34 2 0.2433 -0.0088962 0.749178
35 2 0.00331671 0.251307 0.754714
36 2 0.243043 0.249733 0.492495
37 1 0.127424 0.128346 0.630428
38 1 0.378176 0.122477 0.869176
39 1 0.130353 0.38338 0.874739
40 1 0.374119 0.371905 0.621091
41 2 0.49497 0.00204379 0.491562
42 2 0.750819 0.00229145 0.752956
43 2 0.499303 0.253242 0.745147
44 2 0.743799 0.256334 0.506312
45 1 0.628494 0.122299 0.62948
46 1 0.87639 0.12391 0.8733
47 1 0.628052 0.379848 0.877208
48 1 0.875303 0.377824 0.63223
49 2 0.0040963 0.496219 0.504502
50 2 0.241585 0.490317 0.737294
51 2 -0.00298965 0.752693 0.752297
52 2 0.244225 0.74416 0.492966
53 1 0.121489 0.628861 0.622181
55 1 0.120465 0.869945 0.87281
56 1 0.368644 0.868603 0.622035
2 1 0.871309 0.87134 0.621136
54 1 0.630401 0.876477 0.878611
57 2 0.502873 0.498089 0.501061
58 2 0.748139 0.507297 0.749388
59 2 0.508597 0.755405 0.747106
60 2 0.754759 0.742208 0.501681
61 1 0.625955 0.6233 0.625568
62 1 0.874266 0.627074 0.872754
ITEM: TIMESTEP
130
ITEM: NUMBER OF ATOMS
62
ITEM: BOX BOUNDS pp pp pp
-2.0396927273610643e-02 8.7403969272735971e+00
-2.0396927273610643e-02 8.7403969272735971e+00
-2.0396927273610643e-02 8.7403969272735971e+00
ITEM: ATOMS id type xs ys zs
1 2 -0.00513997 0.00371991 0.0092195
3 2 0.00167196 0.251994 0.260226
4 2 0.255353 0.247489 -0.00408984
5 1 0.119342 0.133525 0.13014
6 1 0.370366 0.12603 0.368758
7 1 0.121557 0.372153 0.380876
8 1 0.373691 0.377126 0.120821
9 2 0.50732 0.00926926 -0.00229451
10 2 0.752599 0.00244552 0.245386
11 2 0.503719 0.248014 0.253879
12 2 0.759219 0.257681 -0.00701856
13 1 0.632367 0.132374 0.121936
14 1 0.868303 0.12967 0.377607
15 1 0.62317 0.371907 0.380975
16 1 0.875986 0.377637 0.128153
17 2 0.00244893 0.501795 -0.00110992
18 2 0.249406 0.495347 0.254296
19 2 -0.00429981 0.748655 0.24212
20 2 0.233099 0.762066 0.0175229
21 1 0.128218 0.623496 0.125589
22 1 0.376229 0.619216 0.371567
23 1 0.12123 0.86749 0.370765
24 1 0.38057 0.868348 0.115924
25 2 0.521092 0.479923 0.0222354
26 2 0.748218 0.498025 0.24931
27 2 0.503871 0.747416 0.250414
28 2 0.752123 0.755279 0.0066402
29 1 0.625855 0.628839 0.125906
30 1 0.872469 0.620659 0.373713
31 1 0.629185 0.875671 0.371399
32 1 0.873617 0.874487 0.127158
33 2 -0.00466216 0.0013292 0.501826
34 2 0.243573 -0.00909542 0.749189
35 2 0.00351166 0.251679 0.755069
36 2 0.243314 0.248936 0.492743
37 1 0.127197 0.12835 0.630492
38 1 0.378433 0.122232 0.86878
39 1 0.130712 0.383772 0.874934
40 1 0.373942 0.372005 0.621048