504
Atoms. Timestep: 0
2 0 0 0
1 16.35 16.35 14.17
2 0 2.18 2.18
2 2.18 2.18 0
1 1.09 1.09 1.09
1 3.27 1.09 3.27
1 1.09 3.27 3.27
1 3.27 3.27 1.09
2 4.36 0 0
2 6.54 0 2.18
2 4.36 2.18 2.18
2 6.54 2.18 0
1 5.45 1.09 1.09
1 7.63 1.09 3.27
1 5.45 3.27 3.27
1 7.63 3.27 1.09
2 8.72 0 0
2 10.9 0 2.18
2 8.72 2.18 2.18
2 10.9 2.18 0
1 9.81 1.09 1.09
1 11.99 1.09 3.27
1 9.81 3.27 3.27
1 11.99 3.27 1.09
2 13.08 0 0
2 15.26 0 2.18
2 13.08 2.18 2.18
2 15.26 2.18 0
1 14.17 1.09 1.09
1 16.35 1.09 3.27
1 14.17 3.27 3.27
1 16.35 3.27 1.09
2 0 4.36 0
2 2.18 4.36 2.18
2 0 6.54 2.18
2 2.18 6.54 0
1 1.09 5.45 1.09
1 3.27 5.45 3.27
1 1.09 7.63 3.27
1 3.27 7.63 1.09
2 4.36 4.36 0
2 6.54 4.36 2.18
2 4.36 6.54 2.18
2 6.54 6.54 0
1 5.45 5.45 1.09
1 7.63 5.45 3.27
1 5.45 7.63 3.27
1 7.63 7.63 1.09
2 8.72 4.36 0
2 10.9 4.36 2.18
2 8.72 6.54 2.18
2 10.9 6.54 0
1 9.81 5.45 1.09
1 14.17 16.35 16.35
1 9.81 7.63 3.27
1 11.99 7.63 1.09
2 13.08 4.36 0
2 15.26 4.36 2.18
2 13.08 6.54 2.18
2 15.26 6.54 0
1 14.17 5.45 1.09
1 16.35 5.45 3.27
1 14.17 7.63 3.27
1 16.35 7.63 1.09
2 0 8.72 0
2 2.18 8.72 2.18
2 0 10.9 2.18
2 2.18 10.9 0
1 1.09 9.81 1.09
1 3.27 9.81 3.27
1 1.09 11.99 3.27
1 3.27 11.99 1.09
2 4.36 8.72 0
2 6.54 8.72 2.18
2 4.36 10.9 2.18
2 6.54 10.9 0
1 5.45 9.81 1.09
1 16.35 14.17 16.35
1 5.45 11.99 3.27
1 7.63 11.99 1.09
2 8.72 8.72 0
2 10.9 8.72 2.18
2 8.72 10.9 2.18
2 10.9 10.9 0
1 9.81 9.81 1.09
1 11.99 9.81 3.27
1 9.81 11.99 3.27
1 11.99 11.99 1.09
2 13.08 8.72 0
2 15.26 8.72 2.18
2 13.08 10.9 2.18
2 15.26 10.9 0
1 14.17 9.81 1.09
1 16.35 9.81 3.27
1 14.17 11.99 3.27
1 16.35 11.99 1.09
2 0 13.08 0
2 2.18 13.08 2.18
2 0 15.26 2.18
2 2.18 15.26 0
1 1.09 14.17 1.09
1 3.27 14.17 3.27
1 1.09 16.35 3.27
1 3.27 16.35 1.09
2 4.36 13.08 0
2 6.54 13.08 2.18
2 4.36 15.26 2.18
2 6.54 15.26 0
1 5.45 14.17 1.09
1 7.63 14.17 3.27
1 5.45 16.35 3.27
1 7.63 16.35 1.09
2 8.72 13.08 0
2 10.9 13.08 2.18
2 8.72 15.26 2.18
2 10.9 15.26 0
1 9.81 14.17 1.09
1 11.99 14.17 3.27
1 9.81 16.35 3.27
1 11.99 16.35 1.09
2 13.08 13.08 0
2 15.26 13.08 2.18
2 13.08 15.26 2.18
2 15.26 15.26 0
1 14.17 14.17 1.09
1 16.35 14.17 3.27
1 14.17 16.35 3.27
1 16.35 16.35 1.09
2 0 0 4.36
2 2.18 0 6.54
2 0 2.18 6.54
2 2.18 2.18 4.36
1 1.09 1.09 5.45
1 3.27 1.09 7.63
1 1.09 3.27 7.63
1 3.27 3.27 5.45
2 4.36 0 4.36
2 6.54 0 6.54
2 4.36 2.18 6.54
2 6.54 2.18 4.36
1 14.17 14.17 14.17
1 7.63 1.09 7.63
1 5.45 3.27 7.63
1 7.63 3.27 5.45
2 8.72 0 4.36
2 10.9 0 6.54
2 8.72 2.18 6.54
2 10.9 2.18 4.36
1 9.81 1.09 5.45
1 11.99 1.09 7.63
1 9.81 3.27 7.63
1 11.99 3.27 5.45
2 13.08 0 4.36
2 15.26 0 6.54
2 13.08 2.18 6.54
2 15.26 2.18 4.36
1 14.17 1.09 5.45
1 16.35 1.09 7.63
1 14.17 3.27 7.63
1 16.35 3.27 5.45
2 0 4.36 4.36
2 2.18 4.36 6.54
2 0 6.54 6.54
2 2.18 6.54 4.36
1 1.09 5.45 5.45
1 3.27 5.45 7.63
1 1.09 7.63 7.63
1 3.27 7.63 5.45
2 4.36 4.36 4.36
2 6.54 4.36 6.54
2 4.36 6.54 6.54
2 6.54 6.54 4.36
1 5.45 5.45 5.45
1 7.63 5.45 7.63
1 5.45 7.63 7.63
1 7.63 7.63 5.45
2 8.72 4.36 4.36
2 10.9 4.36 6.54
2 8.72 6.54 6.54
2 10.9 6.54 4.36
1 9.81 5.45 5.45
1 11.99 5.45 7.63
1 9.81 7.63 7.63
1 11.99 7.63 5.45
2 13.08 4.36 4.36
2 15.26 4.36 6.54
2 13.08 6.54 6.54
2 15.26 6.54 4.36
1 14.17 5.45 5.45
1 16.35 5.45 7.63
1 14.17 7.63 7.63
1 16.35 7.63 5.45
2 0 8.72 4.36
2 2.18 8.72 6.54
2 0 10.9 6.54
2 2.18 10.9 4.36
1 1.09 9.81 5.45
1 3.27 9.81 7.63
1 1.09 11.99 7.63
1 3.27 11.99 5.45
2 4.36 8.72 4.36
2 6.54 8.72 6.54
2 4.36 10.9 6.54
2 6.54 10.9 4.36
1 5.45 9.81 5.45
1 7.63 9.81 7.63
1 5.45 11.99 7.63
1 7.63 11.99 5.45
2 8.72 8.72 4.36
2 10.9 8.72 6.54
2 8.72 10.9 6.54
2 10.9 10.9 4.36
1 9.81 9.81 5.45
1 11.99 9.81 7.63
1 9.81 11.99 7.63
1 11.99 11.99 5.45
2 13.08 8.72 4.36
2 15.26 8.72 6.54
2 13.08 10.9 6.54
2 15.26 10.9 4.36
1 14.17 9.81 5.45
1 16.35 9.81 7.63
2 15.26 15.26 13.08
1 16.35 11.99 5.45
2 0 13.08 4.36
2 2.18 13.08 6.54
2 0 15.26 6.54
2 2.18 15.26 4.36
1 1.09 14.17 5.45
1 3.27 14.17 7.63
1 1.09 16.35 7.63
1 3.27 16.35 5.45
2 4.36 13.08 4.36
2 6.54 13.08 6.54
2 4.36 15.26 6.54
2 6.54 15.26 4.36
1 5.45 14.17 5.45
1 7.63 14.17 7.63
2 13.08 15.26 15.26
1 7.63 16.35 5.45
2 8.72 13.08 4.36
2 10.9 13.08 6.54
2 8.72 15.26 6.54
2 10.9 15.26 4.36
1 9.81 14.17 5.45
1 11.99 14.17 7.63
1 9.81 16.35 7.63
1 11.99 16.35 5.45
2 13.08 13.08 4.36
2 15.26 13.08 6.54
2 13.08 15.26 6.54
2 15.26 15.26 4.36
1 14.17 14.17 5.45
1 16.35 14.17 7.63
1 14.17 16.35 7.63
1 16.35 16.35 5.45
2 0 0 8.72
2 2.18 0 10.9
2 0 2.18 10.9
2 2.18 2.18 8.72
1 1.09 1.09 9.81
1 3.27 1.09 11.99
1 1.09 3.27 11.99
1 3.27 3.27 9.81
2 4.36 0 8.72
2 6.54 0 10.9
2 4.36 2.18 10.9
2 6.54 2.18 8.72
1 5.45 1.09 9.81
1 7.63 1.09 11.99
1 5.45 3.27 11.99
1 7.63 3.27 9.81
2 8.72 0 8.72
2 10.9 0 10.9
2 8.72 2.18 10.9
2 10.9 2.18 8.72
1 9.81 1.09 9.81
1 11.99 1.09 11.99
1 9.81 3.27 11.99
1 11.99 3.27 9.81
2 13.08 0 8.72
2 15.26 0 10.9
2 13.08 2.18 10.9
2 15.26 2.18 8.72
1 14.17 1.09 9.81
1 16.35 1.09 11.99
1 14.17 3.27 11.99
1 16.35 3.27 9.81
2 0 4.36 8.72
2 2.18 4.36 10.9
2 0 6.54 10.9
2 2.18 6.54 8.72
1 1.09 5.45 9.81
1 3.27 5.45 11.99
1 1.09 7.63 11.99
1 3.27 7.63 9.81
2 4.36 4.36 8.72
2 6.54 4.36 10.9
2 4.36 6.54 10.9
2 6.54 6.54 8.72
1 5.45 5.45 9.81
1 7.63 5.45 11.99
1 5.45 7.63 11.99
1 7.63 7.63 9.81
2 8.72 4.36 8.72
2 10.9 4.36 10.9
2 8.72 6.54 10.9
2 10.9 6.54 8.72
1 9.81 5.45 9.81
1 11.99 5.45 11.99
1 9.81 7.63 11.99
1 11.99 7.63 9.81
2 13.08 4.36 8.72
2 15.26 4.36 10.9
2 13.08 6.54 10.9
2 15.26 6.54 8.72
1 14.17 5.45 9.81
1 16.35 5.45 11.99
1 14.17 7.63 11.99
1 16.35 7.63 9.81
2 0 8.72 8.72
2 2.18 8.72 10.9
2 0 10.9 10.9
2 2.18 10.9 8.72
1 1.09 9.81 9.81
1 3.27 9.81 11.99
1 1.09 11.99 11.99
1 3.27 11.99 9.81
2 4.36 8.72 8.72
2 6.54 8.72 10.9
2 4.36 10.9 10.9
2 6.54 10.9 8.72
2 15.26 13.08 15.26
1 7.63 9.81 11.99
1 5.45 11.99 11.99
1 7.63 11.99 9.81
2 8.72 8.72 8.72
2 10.9 8.72 10.9
2 8.72 10.9 10.9
2 10.9 10.9 8.72
1 9.81 9.81 9.81
1 11.99 9.81 11.99
1 9.81 11.99 11.99
1 11.99 11.99 9.81
2 13.08 8.72 8.72
2 15.26 8.72 10.9
2 13.08 10.9 10.9
2 15.26 10.9 8.72
1 14.17 9.81 9.81
1 16.35 9.81 11.99
1 14.17 11.99 11.99
1 16.35 11.99 9.81
2 0 13.08 8.72
2 2.18 13.08 10.9
2 0 15.26 10.9
2 2.18 15.26 8.72
1 1.09 14.17 9.81
1 3.27 14.17 11.99
1 1.09 16.35 11.99
1 3.27 16.35 9.81
2 4.36 13.08 8.72
2 6.54 13.08 10.9
2 4.36 15.26 10.9
2 6.54 15.26 8.72
1 5.45 14.17 9.81
1 7.63 14.17 11.99
1 5.45 16.35 11.99
1 7.63 16.35 9.81
2 8.72 13.08 8.72
2 10.9 13.08 10.9
2 13.08 13.08 13.08
2 10.9 15.26 8.72
1 9.81 14.17 9.81
1 11.99 14.17 11.99
1 9.81 16.35 11.99
1 11.99 16.35 9.81
2 13.08 13.08 8.72
2 15.26 13.08 10.9
2 13.08 15.26 10.9
2 15.26 15.26 8.72
1 14.17 14.17 9.81
1 16.35 14.17 11.99
1 14.17 16.35 11.99
1 16.35 16.35 9.81
2 0 0 13.08
2 2.18 0 15.26
2 0 2.18 15.26
2 2.18 2.18 13.08
1 1.09 1.09 14.17
1 3.27 1.09 16.35
1 1.09 3.27 16.35
1 3.27 3.27 14.17
2 4.36 0 13.08
2 6.54 0 15.26
2 4.36 2.18 15.26
2 6.54 2.18 13.08
1 5.45 1.09 14.17
1 7.63 1.09 16.35
1 5.45 3.27 16.35
1 7.63 3.27 14.17
2 8.72 0 13.08
2 10.9 0 15.26
2 8.72 2.18 15.26
2 10.9 2.18 13.08
1 9.81 1.09 14.17
1 11.99 1.09 16.35
1 9.81 3.27 16.35
1 11.99 3.27 14.17
2 13.08 0 13.08
2 15.26 0 15.26
2 13.08 2.18 15.26
2 15.26 2.18 13.08
1 14.17 1.09 14.17
1 16.35 1.09 16.35
1 14.17 3.27 16.35
1 16.35 3.27 14.17
2 0 4.36 13.08
2 2.18 4.36 15.26
2 0 6.54 15.26
2 2.18 6.54 13.08
1 1.09 5.45 14.17
1 3.27 5.45 16.35
1 1.09 7.63 16.35
1 3.27 7.63 14.17
2 4.36 4.36 13.08
2 6.54 4.36 15.26
2 4.36 6.54 15.26
2 6.54 6.54 13.08
1 5.45 5.45 14.17
1 7.63 5.45 16.35
1 5.45 7.63 16.35
1 7.63 7.63 14.17
2 8.72 4.36 13.08
2 10.9 4.36 15.26
2 8.72 6.54 15.26
2 10.9 6.54 13.08
1 9.81 5.45 14.17
1 11.99 5.45 16.35
1 9.81 7.63 16.35
1 11.99 7.63 14.17
2 13.08 4.36 13.08
2 15.26 4.36 15.26
2 13.08 6.54 15.26
2 15.26 6.54 13.08
1 14.17 5.45 14.17
1 16.35 5.45 16.35
1 14.17 7.63 16.35
1 16.35 7.63 14.17
2 0 8.72 13.08
2 2.18 8.72 15.26
2 0 10.9 15.26
2 2.18 10.9 13.08
1 1.09 9.81 14.17
1 3.27 9.81 16.35
1 1.09 11.99 16.35
1 3.27 11.99 14.17
2 4.36 8.72 13.08
2 6.54 8.72 15.26
2 4.36 10.9 15.26
2 6.54 10.9 13.08
1 5.45 9.81 14.17
1 7.63 9.81 16.35
1 5.45 11.99 16.35
1 7.63 11.99 14.17
2 8.72 8.72 13.08
2 10.9 8.72 15.26
2 8.72 10.9 15.26
2 10.9 10.9 13.08
1 9.81 9.81 14.17
1 11.99 9.81 16.35
1 9.81 11.99 16.35
1 11.99 11.99 14.17
2 13.08 8.72 13.08
2 15.26 8.72 15.26
2 13.08 10.9 15.26
2 15.26 10.9 13.08
1 14.17 9.81 14.17
1 16.35 9.81 16.35
1 14.17 11.99 16.35
1 16.35 11.99 14.17
2 0 13.08 13.08
2 2.18 13.08 15.26
2 0 15.26 15.26
2 2.18 15.26 13.08
1 1.09 14.17 14.17
1 3.27 14.17 16.35
1 1.09 16.35 16.35
1 3.27 16.35 14.17
2 4.36 13.08 13.08
2 6.54 13.08 15.26
2 4.36 15.26 15.26
2 6.54 15.26 13.08
1 5.45 14.17 14.17
1 7.63 14.17 16.35
1 5.45 16.35 16.35
1 7.63 16.35 14.17
2 8.72 13.08 13.08
2 10.9 13.08 15.26
2 8.72 15.26 15.26
2 10.9 15.26 13.08
1 9.81 14.17 14.17
1 11.99 14.17 16.35
1 9.81 16.35 16.35
1 11.99 16.35 14.17
518
Atoms. Timestep: 1
2 0 0 0
1 16.35 16.35 14.17
2 0 2.18 2.18
2 2.18 2.18 0
1 1.09 1.09 1.09
1 3.27 1.09 3.27
1 1.09 3.27 3.27
1 3.27 3.27 1.09
2 4.36 0 0
2 6.54 0 2.18
2 4.36 2.18 2.18
2 6.54 2.18 0
1 5.45 1.09 1.09
1 7.63 1.09 3.27
1 5.45 3.27 3.27
1 7.63 3.27 1.09
2 8.72 0 0
2 10.9 0 2.18
2 8.72 2.18 2.18
2 10.9 2.18 0
1 9.81 1.09 1.09
1 11.99 1.09 3.27
1 9.81 3.27 3.27
1 11.99 3.27 1.09
2 13.08 0 0
2 15.26 0 2.18
2 13.08 2.18 2.18
2 15.26 2.18 0
1 14.17 1.09 1.09
1 16.35 1.09 3.27
1 14.17 3.27 3.27
1 16.35 3.27 1.09
2 0 4.36 0
2 2.18 4.36 2.18
2 0 6.54 2.18
2 2.18 6.54 0
1 1.09 5.45 1.09
1 3.27 5.45 3.27
1 1.09 7.63 3.27
1 3.27 7.63 1.09
2 4.36 4.36 0
2 6.54 4.36 2.18
2 4.36 6.54 2.18
2 6.54 6.54 0
1 5.45 5.45 1.09
1 7.63 5.45 3.27
1 5.45 7.63 3.27
1 7.63 7.63 1.09
2 8.72 4.36 0
2 10.9 4.36 2.18
2 8.72 6.54 2.18
2 10.9 6.54 0
1 9.81 5.45 1.09
1 14.17 16.35 16.35
1 9.81 7.63 3.27
1 11.99 7.63 1.09
2 13.08 4.36 0
2 15.26 4.36 2.18
2 13.08 6.54 2.18
2 15.26 6.54 0
1 14.17 5.45 1.09
1 16.35 5.45 3.27
1 14.17 7.63 3.27
1 16.35 7.63 1.09
2 0 8.72 0
2 2.18 8.72 2.18
2 0 10.9 2.18
2 2.18 10.9 0
1 1.09 9.81 1.09
1 3.27 9.81 3.27
1 1.09 11.99 3.27
1 3.27 11.99 1.09
2 4.36 8.72 0
2 6.54 8.72 2.18
2 4.36 10.9 2.18
2 6.54 10.9 0
1 5.45 9.81 1.09
1 16.35 14.17 16.35
1 5.45 11.99 3.27
1 7.63 11.99 1.09
2 8.72 8.72 0
2 10.9 8.72 2.18
2 8.72 10.9 2.18
2 10.9 10.9 0
1 9.81 9.81 1.09
1 11.99 9.81 3.27
1 9.81 11.99 3.27
1 11.99 11.99 1.09
2 13.08 8.72 0
2 15.26 8.72 2.18
2 13.08 10.9 2.18
2 15.26 10.9 0
1 14.17 9.81 1.09
1 16.35 9.81 3.27
1 14.17 11.99 3.27
1 16.35 11.99 1.09
2 0 13.08 0
2 2.18 13.08 2.18
2 0 15.26 2.18
2 2.18 15.26 0
1 1.09 14.17 1.09
1 3.27 14.17 3.27
1 1.09 16.35 3.27
1 3.27 16.35 1.09
2 4.36 13.08 0
2 6.54 13.08 2.18
2 4.36 15.26 2.18
2 6.54 15.26 0
1 5.45 14.17 1.09
1 7.63 14.17 3.27
1 5.45 16.35 3.27
1 7.63 16.35 1.09
2 8.72 13.08 0
2 10.9 13.08 2.18
2 8.72 15.26 2.18
2 10.9 15.26 0
1 9.81 14.17 1.09
1 11.99 14.17 3.27
1 9.81 16.35 3.27
1 11.99 16.35 1.09
2 13.08 13.08 0
2 15.26 13.08 2.18
2 13.08 15.26 2.18
2 15.26 15.26 0
1 14.17 14.17 1.09
1 16.35 14.17 3.27
1 14.17 16.35 3.27
1 16.35 16.35 1.09
2 0 0 4.36
2 2.18 0 6.54
2 0 2.18 6.54
2 2.18 2.18 4.36
1 1.09 1.09 5.45
1 3.27 1.09 7.63
1 1.09 3.27 7.63
1 3.27 3.27 5.45
2 4.36 0 4.36
2 6.54 0 6.54
2 4.36 2.18 6.54
2 6.54 2.18 4.36
1 14.17 14.17 14.17
1 7.63 1.09 7.63
1 5.45 3.27 7.63
1 7.63 3.27 5.45
2 8.72 0 4.36
2 10.9 0 6.54
2 8.72 2.18 6.54
2 10.9 2.18 4.36
1 9.81 1.09 5.45
1 11.99 1.09 7.63
1 9.81 3.27 7.63
1 11.99 3.27 5.45
2 13.08 0 4.36
2 15.26 0 6.54
2 13.08 2.18 6.54
2 15.26 2.18 4.36
1 14.17 1.09 5.45
1 16.35 1.09 7.63
1 14.17 3.27 7.63
1 16.35 3.27 5.45
2 0 4.36 4.36
2 2.18 4.36 6.54
2 0 6.54 6.54
2 2.18 6.54 4.36
1 1.09 5.45 5.45
1 3.27 5.45 7.63
1 1.09 7.63 7.63
1 3.27 7.63 5.45
2 4.36 4.36 4.36
2 6.54 4.36 6.54
2 4.36 6.54 6.54
2 6.54 6.54 4.36
1 5.45 5.45 5.45
1 7.63 5.45 7.63
1 5.45 7.63 7.63
1 7.63 7.63 5.45
2 8.72 4.36 4.36
2 10.9 4.36 6.54
2 8.72 6.54 6.54
2 10.9 6.54 4.36
1 9.81 5.45 5.45
1 11.99 5.45 7.63
1 9.81 7.63 7.63
1 11.99 7.63 5.45
2 13.08 4.36 4.36
2 15.26 4.36 6.54
2 13.08 6.54 6.54
2 15.26 6.54 4.36
1 14.17 5.45 5.45
1 16.35 5.45 7.63
1 14.17 7.63 7.63
1 16.35 7.63 5.45
2 0 8.72 4.36
2 2.18 8.72 6.54
2 0 10.9 6.54
2 2.18 10.9 4.36
1 1.09 9.81 5.45
1 3.27 9.81 7.63
1 1.09 11.99 7.63
1 3.27 11.99 5.45
2 4.36 8.72 4.36
2 6.54 8.72 6.54
2 4.36 10.9 6.54
2 6.54 10.9 4.36
1 5.45 9.81 5.45
1 7.63 9.81 7.63
1 5.45 11.99 7.63
1 7.63 11.99 5.45
2 8.72 8.72 4.36
2 10.9 8.72 6.54
2 8.72 10.9 6.54
2 10.9 10.9 4.36
1 9.81 9.81 5.45
1 11.99 9.81 7.63
1 9.81 11.99 7.63
1 11.99 11.99 5.45
2 13.08 8.72 4.36
2 15.26 8.72 6.54
2 13.08 10.9 6.54
2 15.26 10.9 4.36
1 14.17 9.81 5.45
1 16.35 9.81 7.63
2 15.26 15.26 13.08
1 16.35 11.99 5.45
2 0 13.08 4.36
2 2.18 13.08 6.54
2 0 15.26 6.54
2 2.18 15.26 4.36
1 1.09 14.17 5.45
1 3.27 14.17 7.63
1 1.09 16.35 7.63
1 3.27 16.35 5.45
2 4.36 13.08 4.36
2 6.54 13.08 6.54
2 4.36 15.26 6.54
2 6.54 15.26 4.36
1 5.45 14.17 5.45
1 7.63 14.17 7.63
2 13.08 15.26 15.26
1 7.63 16.35 5.45
2 8.72 13.08 4.36
2 10.9 13.08 6.54
2 8.72 15.26 6.54
2 10.9 15.26 4.36
1 9.81 14.17 5.45
1 11.99 14.17 7.63
1 9.81 16.35 7.63
1 11.99 16.35 5.45
2 13.08 13.08 4.36
2 15.26 13.08 6.54
2 13.08 15.26 6.54
2 15.26 15.26 4.36
1 14.17 14.17 5.45
1 16.35 14.17 7.63
1 14.17 16.35 7.63
1 16.35 16.35 5.45
2 0 0 8.72
2 2.18 0 10.9
2 0 2.18 10.9
2 2.18 2.18 8.72
1 1.09 1.09 9.81
1 3.27 1.09 11.99
1 1.09 3.27 11.99
1 3.27 3.27 9.81
2 4.36 0 8.72
2 6.54 0 10.9
2 4.36 2.18 10.9
2 6.54 2.18 8.72
1 5.45 1.09 9.81
1 7.63 1.09 11.99
1 5.45 3.27 11.99
1 7.63 3.27 9.81
2 8.72 0 8.72
2 10.9 0 10.9
2 8.72 2.18 10.9
2 10.9 2.18 8.72
1 9.81 1.09 9.81
1 11.99 1.09 11.99
1 9.81 3.27 11.99
1 11.99 3.27 9.81
2 13.08 0 8.72
2 15.26 0 10.9
2 13.08 2.18 10.9
2 15.26 2.18 8.72
1 14.17 1.09 9.81
1 16.35 1.09 11.99
1 14.17 3.27 11.99
1 16.35 3.27 9.81
2 0 4.36 8.72
2 2.18 4.36 10.9
2 0 6.54 10.9
2 2.18 6.54 8.72
1 1.09 5.45 9.81
1 3.27 5.45 11.99
1 1.09 7.63 11.99
1 3.27 7.63 9.81
2 4.36 4.36 8.72
2 6.54 4.36 10.9
2 4.36 6.54 10.9
2 6.54 6.54 8.72
1 5.45 5.45 9.81
1 7.63 5.45 11.99
1 5.45 7.63 11.99
1 7.63 7.63 9.81
2 8.72 4.36 8.72
2 10.9 4.36 10.9
2 8.72 6.54 10.9
2 10.9 6.54 8.72
1 9.81 5.45 9.81
1 11.99 5.45 11.99
1 9.81 7.63 11.99
1 11.99 7.63 9.81
2 13.08 4.36 8.72
2 15.26 4.36 10.9
2 13.08 6.54 10.9
2 15.26 6.54 8.72
1 14.17 5.45 9.81
1 16.35 5.45 11.99
1 14.17 7.63 11.99
1 16.35 7.63 9.81
2 0 8.72 8.72
2 2.18 8.72 10.9
2 0 10.9 10.9
2 2.18 10.9 8.72
1 1.09 9.81 9.81
1 3.27 9.81 11.99
1 1.09 11.99 11.99
1 3.27 11.99 9.81
2 4.36 8.72 8.72
2 6.54 8.72 10.9
2 4.36 10.9 10.9
2 6.54 10.9 8.72
2 15.26 13.08 15.26
1 7.63 9.81 11.99
1 5.45 11.99 11.99
1 7.63 11.99 9.81
2 8.72 8.72 8.72
2 10.9 8.72 10.9
2 8.72 10.9 10.9
2 10.9 10.9 8.72
1 9.81 9.81 9.81
1 11.99 9.81 11.99
1 9.81 11.99 11.99
1 11.99 11.99 9.81
2 13.08 8.72 8.72
2 15.26 8.72 10.9
2 13.08 10.9 10.9
2 15.26 10.9 8.72
1 14.17 9.81 9.81
1 16.35 9.81 11.99
1 14.17 11.99 11.99
1 16.35 11.99 9.81
2 0 13.08 8.72
2 2.18 13.08 10.9
2 0 15.26 10.9
2 2.18 15.26 8.72
1 1.09 14.17 9.81
1 3.27 14.17 11.99
1 1.09 16.35 11.99
1 3.27 16.35 9.81
2 4.36 13.08 8.72
2 6.54 13.08 10.9
2 4.36 15.26 10.9
2 6.54 15.26 8.72
1 5.45 14.17 9.81
1 7.63 14.17 11.99
1 5.45 16.35 11.99
1 7.63 16.35 9.81
2 8.72 13.08 8.72
2 10.9 13.08 10.9
2 13.08 13.08 13.08
2 10.9 15.26 8.72
1 9.81 14.17 9.81
1 11.99 14.17 11.99
1 9.81 16.35 11.99
1 11.99 16.35 9.81
2 13.08 13.08 8.72
2 15.26 13.08 10.9
2 13.08 15.26 10.9
2 15.26 15.26 8.72
1 14.17 14.17 9.81
1 16.35 14.17 11.99
1 14.17 16.35 11.99
1 16.35 16.35 9.81
2 0 0 13.08
2 2.18 0 15.26
2 0 2.18 15.26
2 2.18 2.18 13.08
1 1.09 1.09 14.17
1 3.27 1.09 16.35
1 1.09 3.27 16.35
1 3.27 3.27 14.17
2 4.36 0 13.08
2 6.54 0 15.26
2 4.36 2.18 15.26
2 6.54 2.18 13.08
1 5.45 1.09 14.17
1 7.63 1.09 16.35
1 5.45 3.27 16.35
1 7.63 3.27 14.17
2 8.72 0 13.08
2 10.9 0 15.26
2 8.72 2.18 15.26
2 10.9 2.18 13.08
1 9.81 1.09 14.17
1 11.99 1.09 16.35
1 9.81 3.27 16.35
1 11.99 3.27 14.17
2 13.08 0 13.08
2 15.26 0 15.26
2 13.08 2.18 15.26
2 15.26 2.18 13.08
1 14.17 1.09 14.17
1 16.35 1.09 16.35
1 14.17 3.27 16.35
1 16.35 3.27 14.17
2 0 4.36 13.08
2 2.18 4.36 15.26
2 0 6.54 15.26
2 2.18 6.54 13.08
1 1.09 5.45 14.17
1 3.27 5.45 16.35
1 1.09 7.63 16.35
1 3.27 7.63 14.17
2 4.36 4.36 13.08
2 6.54 4.36 15.26
2 4.36 6.54 15.26
2 6.54 6.54 13.08
1 5.45 5.45 14.17
1 7.63 5.45 16.35
1 5.45 7.63 16.35
1 7.63 7.63 14.17
2 8.72 4.36 13.08
2 10.9 4.36 15.26
2 8.72 6.54 15.26
2 10.9 6.54 13.08
1 9.81 5.45 14.17
1 11.99 5.45 16.35
1 9.81 7.63 16.35
1 11.99 7.63 14.17
2 13.08 4.36 13.08
2 15.26 4.36 15.26
2 13.08 6.54 15.26
2 15.26 6.54 13.08
1 14.17 5.45 14.17
1 16.35 5.45 16.35
1 14.17 7.63 16.35
1 16.35 7.63 14.17
2 0 8.72 13.08
2 2.18 8.72 15.26
2 0 10.9 15.26
2 2.18 10.9 13.08
1 1.09 9.81 14.17
1 3.27 9.81 16.35
1 1.09 11.99 16.35
1 3.27 11.99 14.17
2 4.36 8.72 13.08
2 6.54 8.72 15.26
2 4.36 10.9 15.26
2 6.54 10.9 13.08
1 5.45 9.81 14.17
1 7.63 9.81 16.35
1 5.45 11.99 16.35
1 7.63 11.99 14.17
2 8.72 8.72 13.08
2 10.9 8.72 15.26
2 8.72 10.9 15.26
2 10.9 10.9 13.08
1 9.81 9.81 14.17
1 11.99 9.81 16.35
1 9.81 11.99 16.35
1 11.99 11.99 14.17
2 13.08 8.72 13.08
2 15.26 8.72 15.26
2 13.08 10.9 15.26
2 15.26 10.9 13.08
1 14.17 9.81 14.17
1 16.35 9.81 16.35
1 14.17 11.99 16.35
1 16.35 11.99 14.17
2 0 13.08 13.08
2 2.18 13.08 15.26
2 0 15.26 15.26
2 2.18 15.26 13.08
1 1.09 14.17 14.17
1 3.27 14.17 16.35
1 1.09 16.35 16.35
1 3.27 16.35 14.17
2 4.36 13.08 13.08
2 6.54 13.08 15.26
2 4.36 15.26 15.26
2 6.54 15.26 13.08
1 5.45 14.17 14.17
1 7.63 14.17 16.35
1 5.45 16.35 16.35
1 7.63 16.35 14.17
2 8.72 13.08 13.08
2 10.9 13.08 15.26
2 8.72 15.26 15.26
2 10.9 15.26 13.08
1 9.81 14.17 14.17
1 11.99 14.17 16.35
1 9.81 16.35 16.35
1 11.99 16.35 14.17
1 13.343 11.7583 8.72852
1 11.7715 5.02561 3.45294
1 5.71748 16.712 7.14896
1 4.46568 10.2931 9.00809
1 7.49146 9.65255 3.55689
1 4.13206 1.41775 5.12015
1 5.77305 8.97534 9.94583
1 14.7999 12.9785 8.02539
1 8.80028 15.1619 10.8852
1 5.0709 14.7187 7.82079
2 8.73479 13.0671 15.0877
2 1.80653 16.6712 1.34704
2 2.21606 10.9589 2.35516
2 10.8405 0.0280056 17.2501
520
Atoms. Timestep: 2
2 0 0 0
1 16.35 16.35 14.17
2 0 2.18 2.18
2 2.18 2.18 0
1 1.09 1.09 1.09
1 3.27 1.09 3.27
1 1.09 3.27 3.27
1 3.27 3.27 1.09
2 4.36 0 0
2 6.54 0 2.18
2 4.36 2.18 2.18
2 6.54 2.18 0
1 5.45 1.09 1.09
1 7.63 1.09 3.27
1 5.45 3.27 3.27
1 7.63 3.27 1.09
2 8.72 0 0
2 10.9 0 2.18
2 8.72 2.18 2.18
2 10.9 2.18 0
1 9.81 1.09 1.09
1 11.99 1.09 3.27
1 9.81 3.27 3.27
1 11.99 3.27 1.09
2 13.08 0 0
2 15.26 0 2.18
2 13.08 2.18 2.18
2 15.26 2.18 0
1 14.17 1.09 1.09
1 16.35 1.09 3.27
1 14.17 3.27 3.27
1 16.35 3.27 1.09
2 0 4.36 0
2 2.18 4.36 2.18
2 0 6.54 2.18
2 2.18 6.54 0
1 1.09 5.45 1.09
1 3.27 5.45 3.27
1 1.09 7.63 3.27
1 3.27 7.63 1.09
2 4.36 4.36 0
2 6.54 4.36 2.18
2 4.36 6.54 2.18
2 6.54 6.54 0
1 5.45 5.45 1.09
1 7.63 5.45 3.27
1 5.45 7.63 3.27
1 7.63 7.63 1.09
2 8.72 4.36 0
2 10.9 4.36 2.18
2 8.72 6.54 2.18
2 10.9 6.54 0
1 9.81 5.45 1.09
1 14.17 16.35 16.35
1 9.81 7.63 3.27
1 11.99 7.63 1.09
2 13.08 4.36 0
2 15.26 4.36 2.18
2 13.08 6.54 2.18
2 15.26 6.54 0
1 14.17 5.45 1.09
1 16.35 5.45 3.27
1 14.17 7.63 3.27
1 16.35 7.63 1.09
2 0 8.72 0
2 2.18 8.72 2.18
2 0 10.9 2.18
2 2.18 10.9 0
1 1.09 9.81 1.09
1 3.27 9.81 3.27
1 1.09 11.99 3.27
1 3.27 11.99 1.09
2 4.36 8.72 0
2 6.54 8.72 2.18
2 4.36 10.9 2.18
2 6.54 10.9 0
1 5.45 9.81 1.09
1 16.35 14.17 16.35
1 5.45 11.99 3.27
1 7.63 11.99 1.09
2 8.72 8.72 0
2 10.9 8.72 2.18
2 8.72 10.9 2.18
2 10.9 10.9 0
1 9.81 9.81 1.09
1 11.99 9.81 3.27
1 9.81 11.99 3.27
1 11.99 11.99 1.09
2 13.08 8.72 0
2 15.26 8.72 2.18
2 13.08 10.9 2.18
2 15.26 10.9 0
1 14.17 9.81 1.09
1 16.35 9.81 3.27
1 14.17 11.99 3.27
1 16.35 11.99 1.09
2 0 13.08 0
2 2.18 13.08 2.18
2 0 15.26 2.18
2 2.18 15.26 0
1 1.09 14.17 1.09
1 3.27 14.17 3.27
1 1.09 16.35 3.27
1 3.27 16.35 1.09
2 4.36 13.08 0
2 6.54 13.08 2.18
2 4.36 15.26 2.18
2 6.54 15.26 0
1 5.45 14.17 1.09
1 7.63 14.17 3.27
1 5.45 16.35 3.27
1 7.63 16.35 1.09
2 8.72 13.08 0
2 10.9 13.08 2.18
2 8.72 15.26 2.18
2 10.9 15.26 0
1 9.81 14.17 1.09
1 11.99 14.17 3.27
1 9.81 16.35 3.27
1 11.99 16.35 1.09
2 13.08 13.08 0
2 15.26 13.08 2.18
2 13.08 15.26 2.18
2 15.26 15.26 0
1 14.17 14.17 1.09
1 16.35 14.17 3.27
1 14.17 16.35 3.27
1 16.35 16.35 1.09
2 0 0 4.36
2 2.18 0 6.54
2 0 2.18 6.54
2 2.18 2.18 4.36
1 1.09 1.09 5.45
1 3.27 1.09 7.63
1 1.09 3.27 7.63
1 3.27 3.27 5.45
2 4.36 0 4.36
2 6.54 0 6.54
2 4.36 2.18 6.54
2 6.54 2.18 4.36
1 14.17 14.17 14.17
1 7.63 1.09 7.63
1 5.45 3.27 7.63
1 7.63 3.27 5.45
2 8.72 0 4.36
2 10.9 0 6.54
2 8.72 2.18 6.54
2 10.9 2.18 4.36
1 9.81 1.09 5.45
1 11.99 1.09 7.63
1 9.81 3.27 7.63
1 11.99 3.27 5.45
2 13.08 0 4.36
2 15.26 0 6.54
2 13.08 2.18 6.54
2 15.26 2.18 4.36
1 14.17 1.09 5.45
1 16.35 1.09 7.63
1 14.17 3.27 7.63
1 16.35 3.27 5.45
2 0 4.36 4.36
2 2.18 4.36 6.54
2 0 6.54 6.54
2 2.18 6.54 4.36
1 1.09 5.45 5.45
1 3.27 5.45 7.63
1 1.09 7.63 7.63
1 3.27 7.63 5.45
2 4.36 4.36 4.36
2 6.54 4.36 6.54
2 4.36 6.54 6.54
2 6.54 6.54 4.36
1 5.45 5.45 5.45
1 7.63 5.45 7.63
1 5.45 7.63 7.63
1 7.63 7.63 5.45
2 8.72 4.36 4.36
2 10.9 4.36 6.54
2 8.72 6.54 6.54
2 10.9 6.54 4.36
1 9.81 5.45 5.45
1 11.99 5.45 7.63
1 9.81 7.63 7.63
1 11.99 7.63 5.45
2 13.08 4.36 4.36
2 15.26 4.36 6.54
2 13.08 6.54 6.54
2 15.26 6.54 4.36
1 14.17 5.45 5.45
1 16.35 5.45 7.63
1 14.17 7.63 7.63
1 16.35 7.63 5.45
2 0 8.72 4.36
2 2.18 8.72 6.54
2 0 10.9 6.54
2 2.18 10.9 4.36
1 1.09 9.81 5.45
1 3.27 9.81 7.63
1 1.09 11.99 7.63
1 3.27 11.99 5.45
2 4.36 8.72 4.36
2 6.54 8.72 6.54
2 4.36 10.9 6.54
2 6.54 10.9 4.36
1 5.45 9.81 5.45
1 7.63 9.81 7.63
1 5.45 11.99 7.63
1 7.63 11.99 5.45
2 8.72 8.72 4.36
2 10.9 8.72 6.54
2 8.72 10.9 6.54
2 10.9 10.9 4.36
1 9.81 9.81 5.45
1 11.99 9.81 7.63
1 9.81 11.99 7.63
1 11.99 11.99 5.45
2 13.08 8.72 4.36
2 15.26 8.72 6.54
2 13.08 10.9 6.54
2 15.26 10.9 4.36
1 14.17 9.81 5.45
1 16.35 9.81 7.63
2 15.26 15.26 13.08
1 16.35 11.99 5.45
2 0 13.08 4.36
2 2.18 13.08 6.54
2 0 15.26 6.54
2 2.18 15.26 4.36
1 1.09 14.17 5.45
1 3.27 14.17 7.63
1 1.09 16.35 7.63
1 3.27 16.35 5.45
2 4.36 13.08 4.36
2 6.54 13.08 6.54
2 4.36 15.26 6.54
2 6.54 15.26 4.36
1 5.45 14.17 5.45
1 7.63 14.17 7.63
2 13.08 15.26 15.26
1 7.63 16.35 5.45
2 8.72 13.08 4.36
2 10.9 13.08 6.54
2 8.72 15.26 6.54
2 10.9 15.26 4.36
1 9.81 14.17 5.45
1 11.99 14.17 7.63
1 9.81 16.35 7.63
1 11.99 16.35 5.45
2 13.08 13.08 4.36
2 15.26 13.08 6.54
2 13.08 15.26 6.54
2 15.26 15.26 4.36
1 14.17 14.17 5.45
1 16.35 14.17 7.63
1 14.17 16.35 7.63
1 16.35 16.35 5.45
2 0 0 8.72
2 2.18 0 10.9
2 0 2.18 10.9
2 2.18 2.18 8.72
1 1.09 1.09 9.81
1 3.27 1.09 11.99
1 1.09 3.27 11.99
1 3.27 3.27 9.81
2 4.36 0 8.72
2 6.54 0 10.9
2 4.36 2.18 10.9
2 6.54 2.18 8.72
1 5.45 1.09 9.81
1 7.63 1.09 11.99
1 5.45 3.27 11.99
1 7.63 3.27 9.81
2 8.72 0 8.72
2 10.9 0 10.9
2 8.72 2.18 10.9
2 10.9 2.18 8.72
1 9.81 1.09 9.81
1 11.99 1.09 11.99
1 9.81 3.27 11.99
1 11.99 3.27 9.81
2 13.08 0 8.72
2 15.26 0 10.9
2 13.08 2.18 10.9
2 15.26 2.18 8.72
1 14.17 1.09 9.81
1 16.35 1.09 11.99
1 14.17 3.27 11.99
1 16.35 3.27 9.81
2 0 4.36 8.72
2 2.18 4.36 10.9
2 0 6.54 10.9
2 2.18 6.54 8.72
1 1.09 5.45 9.81
1 3.27 5.45 11.99
1 1.09 7.63 11.99
1 3.27 7.63 9.81
2 4.36 4.36 8.72
2 6.54 4.36 10.9
2 4.36 6.54 10.9
2 6.54 6.54 8.72
1 5.45 5.45 9.81
1 7.63 5.45 11.99
1 5.45 7.63 11.99
1 7.63 7.63 9.81
2 8.72 4.36 8.72
2 10.9 4.36 10.9
2 8.72 6.54 10.9
2 10.9 6.54 8.72
1 9.81 5.45 9.81
1 11.99 5.45 11.99
1 9.81 7.63 11.99
1 11.99 7.63 9.81
2 13.08 4.36 8.72
2 15.26 4.36 10.9
2 13.08 6.54 10.9
2 15.26 6.54 8.72
1 14.17 5.45 9.81
1 16.35 5.45 11.99
1 14.17 7.63 11.99
1 16.35 7.63 9.81
2 0 8.72 8.72
2 2.18 8.72 10.9
2 0 10.9 10.9
2 2.18 10.9 8.72
1 1.09 9.81 9.81
1 3.27 9.81 11.99
1 1.09 11.99 11.99
1 3.27 11.99 9.81
2 4.36 8.72 8.72
2 6.54 8.72 10.9
2 4.36 10.9 10.9
2 6.54 10.9 8.72
2 15.26 13.08 15.26
1 7.63 9.81 11.99
1 5.45 11.99 11.99
1 7.63 11.99 9.81
2 8.72 8.72 8.72
2 10.9 8.72 10.9
2 8.72 10.9 10.9
2 10.9 10.9 8.72
1 9.81 9.81 9.81
1 11.99 9.81 11.99
1 9.81 11.99 11.99
1 11.99 11.99 9.81
2 13.08 8.72 8.72
2 15.26 8.72 10.9
2 13.08 10.9 10.9
2 15.26 10.9 8.72
1 14.17 9.81 9.81
1 16.35 9.81 11.99
1 14.17 11.99 11.99
1 16.35 11.99 9.81
2 0 13.08 8.72
2 2.18 13.08 10.9
2 0 15.26 10.9
2 2.18 15.26 8.72
1 1.09 14.17 9.81
1 3.27 14.17 11.99
1 1.09 16.35 11.99
1 3.27 16.35 9.81
2 4.36 13.08 8.72
2 6.54 13.08 10.9
2 4.36 15.26 10.9
2 6.54 15.26 8.72
1 5.45 14.17 9.81
1 7.63 14.17 11.99
1 5.45 16.35 11.99
1 7.63 16.35 9.81
2 8.72 13.08 8.72
2 10.9 13.08 10.9
2 13.08 13.08 13.08
2 10.9 15.26 8.72
1 9.81 14.17 9.81
1 11.99 14.17 11.99
1 9.81 16.35 11.99
1 11.99 16.35 9.81
2 13.08 13.08 8.72
2 15.26 13.08 10.9
2 13.08 15.26 10.9
2 15.26 15.26 8.72
1 14.17 14.17 9.81
1 16.35 14.17 11.99
1 14.17 16.35 11.99
1 16.35 16.35 9.81
2 0 0 13.08
2 2.18 0 15.26
2 0 2.18 15.26
2 2.18 2.18 13.08
1 1.09 1.09 14.17
1 3.27 1.09 16.35
1 1.09 3.27 16.35
1 3.27 3.27 14.17
2 4.36 0 13.08
2 6.54 0 15.26
2 4.36 2.18 15.26
2 6.54 2.18 13.08
1 5.45 1.09 14.17
1 7.63 1.09 16.35
1 5.45 3.27 16.35
1 7.63 3.27 14.17
2 8.72 0 13.08
2 10.9 0 15.26
2 8.72 2.18 15.26
2 10.9 2.18 13.08
1 9.81 1.09 14.17
1 11.99 1.09 16.35
1 9.81 3.27 16.35
1 11.99 3.27 14.17
2 13.08 0 13.08
2 15.26 0 15.26
2 13.08 2.18 15.26
2 15.26 2.18 13.08
1 14.17 1.09 14.17
1 16.35 1.09 16.35
1 14.17 3.27 16.35
1 16.35 3.27 14.17
2 0 4.36 13.08
2 2.18 4.36 15.26
2 0 6.54 15.26
2 2.18 6.54 13.08
1 1.09 5.45 14.17
1 3.27 5.45 16.35
1 1.09 7.63 16.35
1 3.27 7.63 14.17
2 4.36 4.36 13.08
2 6.54 4.36 15.26
2 4.36 6.54 15.26
2 6.54 6.54 13.08
1 5.45 5.45 14.17
1 7.63 5.45 16.35
1 5.45 7.63 16.35
1 7.63 7.63 14.17
2 8.72 4.36 13.08
2 10.9 4.36 15.26
2 8.72 6.54 15.26
2 10.9 6.54 13.08
1 9.81 5.45 14.17
1 11.99 5.45 16.35
1 9.81 7.63 16.35
1 11.99 7.63 14.17
2 13.08 4.36 13.08
2 15.26 4.36 15.26
2 13.08 6.54 15.26
2 15.26 6.54 13.08
1 14.17 5.45 14.17
1 16.35 5.45 16.35
1 14.17 7.63 16.35
1 16.35 7.63 14.17
2 0 8.72 13.08
2 2.18 8.72 15.26
2 0 10.9 15.26
2 2.18 10.9 13.08
1 1.09 9.81 14.17
1 3.27 9.81 16.35
1 1.09 11.99 16.35
1 3.27 11.99 14.17
2 4.36 8.72 13.08
2 6.54 8.72 15.26
2 4.36 10.9 15.26
2 6.54 10.9 13.08
1 5.45 9.81 14.17
1 7.63 9.81 16.35
1 5.45 11.99 16.35
1 7.63 11.99 14.17
2 8.72 8.72 13.08
2 10.9 8.72 15.26
2 8.72 10.9 15.26
2 10.9 10.9 13.08
1 9.81 9.81 14.17
1 11.99 9.81 16.35
1 9.81 11.99 16.35
1 11.99 11.99 14.17
2 13.08 8.72 13.08
2 15.26 8.72 15.26
2 13.08 10.9 15.26
2 15.26 10.9 13.08
1 14.17 9.81 14.17
1 16.35 9.81 16.35
1 14.17 11.99 16.35
1 16.35 11.99 14.17
2 0 13.08 13.08
2 2.18 13.08 15.26
2 0 15.26 15.26
2 2.18 15.26 13.08
1 1.09 14.17 14.17
1 3.27 14.17 16.35
1 1.09 16.35 16.35
1 3.27 16.35 14.17
2 4.36 13.08 13.08
2 6.54 13.08 15.26
2 4.36 15.26 15.26
2 6.54 15.26 13.08
1 5.45 14.17 14.17
1 7.63 14.17 16.35
1 5.45 16.35 16.35
1 7.63 16.35 14.17
2 8.72 13.08 13.08
2 10.9 13.08 15.26
2 8.72 15.26 15.26
2 10.9 15.26 13.08
1 9.81 14.17 14.17
1 11.99 14.17 16.35
1 9.81 16.35 16.35
1 11.99 16.35 14.17
1 13.343 11.7583 8.72852
1 11.7715 5.02561 3.45294
1 5.71748 16.712 7.14896
1 4.46568 10.2931 9.00809
1 7.49146 9.65255 3.55689
1 4.13206 1.41775 5.12015
1 5.77305 8.97534 9.94583
1 14.7999 12.9785 8.02539
1 8.80028 15.1619 10.8852
1 5.0709 14.7187 7.82079
2 8.73479 13.0671 15.0877
2 1.80653 16.6712 1.34704
2 2.21606 10.9589 2.35516
2 10.8405 0.0280056 17.2501
1 5.68544 1.36075 6.33183
2 2.20152 10.728 10.8262
522
Atoms. Timestep: 3
2 0 0 0
1 16.35 16.35 14.17
2 0 2.18 2.18
2 2.18 2.18 0
1 1.09 1.09 1.09
1 3.27 1.09 3.27
1 1.09 3.27 3.27
1 3.27 3.27 1.09
2 4.36 0 0
2 6.54 0 2.18
2 4.36 2.18 2.18
2 6.54 2.18 0
1 5.45 1.09 1.09
1 7.63 1.09 3.27
1 5.45 3.27 3.27
1 7.63 3.27 1.09
2 8.72 0 0
2 10.9 0 2.18
2 8.72 2.18 2.18
2 10.9 2.18 0
1 9.81 1.09 1.09
1 11.99 1.09 3.27
1 9.81 3.27 3.27
1 11.99 3.27 1.09
2 13.08 0 0
2 15.26 0 2.18
2 13.08 2.18 2.18
2 15.26 2.18 0
1 14.17 1.09 1.09
1 16.35 1.09 3.27
1 14.17 3.27 3.27
1 16.35 3.27 1.09
2 0 4.36 0
2 2.18 4.36 2.18
2 0 6.54 2.18
2 2.18 6.54 0
1 1.09 5.45 1.09
1 3.27 5.45 3.27
1 1.09 7.63 3.27
1 3.27 7.63 1.09
2 4.36 4.36 0
2 6.54 4.36 2.18
2 4.36 6.54 2.18
2 6.54 6.54 0
1 5.45 5.45 1.09
1 7.63 5.45 3.27
1 5.45 7.63 3.27
1 7.63 7.63 1.09
2 8.72 4.36 0
2 10.9 4.36 2.18
2 8.72 6.54 2.18
2 10.9 6.54 0
1 9.81 5.45 1.09
1 14.17 16.35 16.35
1 9.81 7.63 3.27
1 11.99 7.63 1.09
2 13.08 4.36 0
2 15.26 4.36 2.18
2 13.08 6.54 2.18
2 15.26 6.54 0
1 14.17 5.45 1.09
1 16.35 5.45 3.27
1 14.17 7.63 3.27
1 16.35 7.63 1.09
2 0 8.72 0
2 2.18 8.72 2.18
2 0 10.9 2.18
2 2.18 10.9 0
1 1.09 9.81 1.09
1 3.27 9.81 3.27
1 1.09 11.99 3.27
1 3.27 11.99 1.09
2 4.36 8.72 0
2 6.54 8.72 2.18
2 4.36 10.9 2.18
2 6.54 10.9 0
1 5.45 9.81 1.09
1 16.35 14.17 16.35
1 5.45 11.99 3.27
1 7.63 11.99 1.09
2 8.72 8.72 0
2 10.9 8.72 2.18
2 8.72 10.9 2.18
2 10.9 10.9 0
1 9.81 9.81 1.09
1 11.99 9.81 3.27
1 9.81 11.99 3.27
1 11.99 11.99 1.09
2 13.08 8.72 0
2 15.26 8.72 2.18
2 13.08 10.9 2.18
2 15.26 10.9 0
1 14.17 9.81 1.09
1 16.35 9.81 3.27
1 14.17 11.99 3.27
1 16.35 11.99 1.09
2 0 13.08 0
2 2.18 13.08 2.18
2 0 15.26 2.18
2 2.18 15.26 0
1 1.09 14.17 1.09
1 3.27 14.17 3.27
1 1.09 16.35 3.27
1 3.27 16.35 1.09
2 4.36 13.08 0
2 6.54 13.08 2.18
2 4.36 15.26 2.18
2 6.54 15.26 0
1 5.45 14.17 1.09
1 7.63 14.17 3.27
1 5.45 16.35 3.27
1 7.63 16.35 1.09
2 8.72 13.08 0
2 10.9 13.08 2.18
2 8.72 15.26 2.18
2 10.9 15.26 0
1 9.81 14.17 1.09
1 11.99 14.17 3.27
1 9.81 16.35 3.27
1 11.99 16.35 1.09
2 13.08 13.08 0
2 15.26 13.08 2.18
2 13.08 15.26 2.18
2 15.26 15.26 0
1 14.17 14.17 1.09
1 16.35 14.17 3.27
1 14.17 16.35 3.27
1 16.35 16.35 1.09
2 0 0 4.36
2 2.18 0 6.54
2 0 2.18 6.54
2 2.18 2.18 4.36
1 1.09 1.09 5.45
1 3.27 1.09 7.63
1 1.09 3.27 7.63
1 3.27 3.27 5.45
2 4.36 0 4.36
2 6.54 0 6.54
2 4.36 2.18 6.54
2 6.54 2.18 4.36
1 14.17 14.17 14.17
1 7.63 1.09 7.63
1 5.45 3.27 7.63
1 7.63 3.27 5.45
2 8.72 0 4.36
2 10.9 0 6.54
2 8.72 2.18 6.54
2 10.9 2.18 4.36
1 9.81 1.09 5.45
1 11.99 1.09 7.63
1 9.81 3.27 7.63
1 11.99 3.27 5.45
2 13.08 0 4.36
2 15.26 0 6.54
2 13.08 2.18 6.54
2 15.26 2.18 4.36
1 14.17 1.09 5.45
1 16.35 1.09 7.63
1 14.17 3.27 7.63
1 16.35 3.27 5.45
2 0 4.36 4.36
2 2.18 4.36 6.54
2 0 6.54 6.54
2 2.18 6.54 4.36
1 1.09 5.45 5.45
1 3.27 5.45 7.63
1 1.09 7.63 7.63
1 3.27 7.63 5.45
2 4.36 4.36 4.36
2 6.54 4.36 6.54
2 4.36 6.54 6.54
2 6.54 6.54 4.36