ITEM: TIMESTEP
0
ITEM: NUMBER OF ATOMS
63
ITEM: BOX BOUNDS pp pp pp
0.0000000000000000e+00 8.7200000000000006e+00
0.0000000000000000e+00 8.7200000000000006e+00
0.0000000000000000e+00 8.7200000000000006e+00
ITEM: ATOMS id type xs ys zs
1 2 0 0 0
2 2 0.25 0 0.25
3 2 0 0.25 0.25
4 2 0.25 0.25 0
5 1 0.125 0.125 0.125
6 1 0.375 0.125 0.375
7 1 0.125 0.375 0.375
8 1 0.375 0.375 0.125
9 2 0.5 0 0
10 2 0.75 0 0.25
11 2 0.5 0.25 0.25
12 2 0.75 0.25 0
13 1 0.625 0.125 0.125
14 1 0.875 0.125 0.375
15 1 0.625 0.375 0.375
16 1 0.875 0.375 0.125
17 2 0 0.5 0
18 2 0.25 0.5 0.25
19 2 0 0.75 0.25
20 2 0.25 0.75 0
21 1 0.125 0.625 0.125
22 1 0.375 0.625 0.375
23 1 0.125 0.875 0.375
24 1 0.375 0.875 0.125
25 2 0.5 0.5 0
26 2 0.75 0.5 0.25
27 2 0.5 0.75 0.25
28 2 0.75 0.75 0
29 1 0.625 0.625 0.125
30 1 0.875 0.625 0.375
31 1 0.625 0.875 0.375
32 1 0.875 0.875 0.125
33 2 0 0 0.5
34 2 0.25 0 0.75
35 2 0 0.25 0.75
36 2 0.25 0.25 0.5
37 1 0.125 0.125 0.625
38 1 0.375 0.125 0.875
39 1 0.125 0.375 0.875
40 1 0.375 0.375 0.625
41 2 0.5 0 0.5
42 2 0.75 0 0.75
43 2 0.5 0.25 0.75
44 2 0.75 0.25 0.5
45 1 0.625 0.125 0.625
46 1 0.875 0.125 0.875
47 1 0.625 0.375 0.875
48 1 0.875 0.375 0.625
49 2 0 0.5 0.5
50 2 0.25 0.5 0.75
51 2 0 0.75 0.75
52 2 0.25 0.75 0.5
53 1 0.125 0.625 0.625
55 1 0.125 0.875 0.875
56 1 0.375 0.875 0.625
54 1 0.875 0.875 0.625
57 2 0.5 0.5 0.5
58 2 0.75 0.5 0.75
59 2 0.5 0.75 0.75
60 2 0.75 0.75 0.5
61 1 0.625 0.625 0.625
62 1 0.875 0.625 0.875
63 1 0.625 0.875 0.875
ITEM: TIMESTEP
10
ITEM: NUMBER OF ATOMS
63
ITEM: BOX BOUNDS pp pp pp
1.7265686464353891e-03 8.7182734313535661e+00
1.7265686464353891e-03 8.7182734313535661e+00
1.7265686464353891e-03 8.7182734313535661e+00
ITEM: ATOMS id type xs ys zs
1 2 -0.000912855 0.000806259 0.00101369
2 2 0.24895 -0.00105733 0.248981
3 2 0.000601742 0.250243 0.250939
4 2 0.250644 0.249672 -0.000691826
5 1 0.124656 0.125485 0.125717
6 1 0.374479 0.124811 0.374306
7 1 0.124654 0.374557 0.37554
8 1 0.374554 0.37568 0.1246
9 2 0.500976 0.00103786 -0.000438727
10 2 0.750295 7.81192e-05 0.249314
11 2 0.50093 0.249677 0.25109
12 2 0.751021 0.251026 -0.00101683
13 1 0.625631 0.125626 0.124786
14 1 0.874416 0.12534 0.375123
15 1 0.62462 0.374572 0.375737
16 1 0.874717 0.375096 0.12531
17 2 0.000238629 0.500048 -0.000276839
18 2 0.250224 0.499653 0.250509
19 2 -0.000845536 0.750119 0.248996
20 2 0.250051 0.749413 0.000477435
21 1 0.12567 0.624789 0.125172
22 1 0.374945 0.624451 0.374468
23 1 0.12508 0.874452 0.374479
24 1 0.374918 0.874636 0.124593
25 2 0.500275 0.498988 0.000627575
26 2 0.750189 0.499817 0.249518
27 2 0.500893 0.749314 0.249783
28 2 0.750308 0.750926 0.00108786
29 1 0.625006 0.625382 0.125271
30 1 0.874574 0.624763 0.374886
31 1 0.625434 0.875114 0.374677
32 1 0.874799 0.87475 0.125211
33 2 -0.000819345 -6.49083e-05 0.500501
34 2 0.248974 -0.00104387 0.749863
35 2 0.000311791 0.24995 0.750392
36 2 0.249047 0.250499 0.498976
37 1 0.125421 0.125402 0.625635
38 1 0.375258 0.124808 0.874485
39 1 0.125407 0.375773 0.874763
40 1 0.374894 0.374461 0.624453
41 2 0.499493 0.000707548 0.498935
42 2 0.74989 0.000700473 0.750504
43 2 0.499645 0.2505 0.749229
44 2 0.748927 0.250955 0.500374
45 1 0.625574 0.124633 0.625567
46 1 0.874956 0.124759 0.874695
47 1 0.625462 0.375258 0.875562
48 1 0.875034 0.375235 0.625639
49 2 0.000909322 0.499427 0.5006
50 2 0.250295 0.499951 0.750376
51 2 -9.66748e-05 0.750547 0.750791
52 2 0.248875 0.749227 0.499606
53 1 0.12466 0.625403 0.624377
55 1 0.124395 0.874482 0.874676
56 1 0.374479 0.874459 0.624639
54 1 0.875648 0.875208 0.625075
57 2 0.500509 0.49963 0.50005
58 2 0.749615 0.500919 0.74964
59 2 0.499603 0.749267 0.751016
60 2 0.750965 0.748977 0.500607
61 1 0.625546 0.62525 0.624894
62 1 0.875031 0.625156 0.874616
63 1 0.62509 0.875247 0.875461
ITEM: TIMESTEP
20
ITEM: NUMBER OF ATOMS
63
ITEM: BOX BOUNDS pp pp pp
6.7399008858037845e-03 8.7132600991142013e+00
6.7399008858037845e-03 8.7132600991142013e+00
6.7399008858037845e-03 8.7132600991142013e+00
ITEM: ATOMS id type xs ys zs
1 2 -0.00181008 0.00159455 0.00200932
2 2 0.247919 -0.00209818 0.247977
3 2 0.00118059 0.250487 0.251866
4 2 0.251272 0.249355 -0.00137151
5 1 0.124313 0.125968 0.126426
6 1 0.373954 0.124622 0.373611
7 1 0.124312 0.374121 0.376076
8 1 0.374085 0.376371 0.124182
9 2 0.501934 0.00205951 -0.000866753
10 2 0.750588 0.000159765 0.248641
11 2 0.501835 0.249364 0.25215
12 2 0.752029 0.252034 -0.00201323
13 1 0.626264 0.126254 0.124569
14 1 0.873833 0.125681 0.375249
15 1 0.624244 0.374152 0.376468
16 1 0.874444 0.375191 0.125616
17 2 0.000474983 0.500098 -0.000546108
18 2 0.250435 0.499305 0.25101
19 2 -0.00167444 0.750226 0.248011
20 2 0.249895 0.749037 0.00114331
21 1 0.126356 0.624545 0.12532
22 1 0.374894 0.623904 0.373943
23 1 0.125149 0.873907 0.373959
24 1 0.374874 0.87425 0.124159
25 2 0.500762 0.497792 0.00145873
26 2 0.750363 0.499633 0.249053
27 2 0.501764 0.748644 0.249571
28 2 0.75061 0.751831 0.00215244
29 1 0.62499 0.625789 0.125513
30 1 0.874157 0.624521 0.374773
31 1 0.625868 0.875224 0.374357
32 1 0.8746 0.874508 0.12542
33 2 -0.00161421 -0.00012214 0.500989
34 2 0.24797 -0.00207288 0.749729
35 2 0.000621327 0.249907 0.750783
36 2 0.248114 0.250977 0.497973
37 1 0.125836 0.1258 0.626262
38 1 0.375514 0.124615 0.873967
39 1 0.125836 0.376562 0.874561
40 1 0.374818 0.373952 0.62393
41 2 0.498996 0.00139516 0.497891
42 2 0.749788 0.00137761 0.751
43 2 0.499305 0.250989 0.748475
44 2 0.747879 0.251891 0.500754
45 1 0.626138 0.124273 0.626126
46 1 0.874915 0.124525 0.874395
47 1 0.625895 0.375543 0.876082
48 1 0.875067 0.375469 0.626277
49 2 0.00179155 0.498864 0.501187
50 2 0.250389 0.499711 0.75053
51 2 -0.00019391 0.751079 0.751558
52 2 0.247773 0.748462 0.499206
53 1 0.124345 0.625834 0.62379
55 1 0.123816 0.873944 0.874334
56 1 0.373927 0.873893 0.624301
54 1 0.876288 0.875414 0.625157
57 2 0.501006 0.499269 0.500101
58 2 0.74924 0.501825 0.749294
59 2 0.499411 0.748744 0.751819
60 2 0.751917 0.747984 0.501202
61 1 0.626062 0.625467 0.624815
62 1 0.875061 0.625316 0.874239
63 1 0.625159 0.87547 0.875953
ITEM: TIMESTEP
30
ITEM: NUMBER OF ATOMS
63
ITEM: BOX BOUNDS pp pp pp
1.4537953312943941e-02 8.7054620466870638e+00
1.4537953312943941e-02 8.7054620466870638e+00
1.4537953312943941e-02 8.7054620466870638e+00
ITEM: ATOMS id type xs ys zs
1 2 -0.00267634 0.00234778 0.00296956
2 2 0.246929 -0.00310682 0.247001
3 2 0.00171364 0.25073 0.252772
4 2 0.251869 0.249056 -0.00202744
5 1 0.123974 0.126447 0.12712
6 1 0.373421 0.124432 0.372914
7 1 0.123976 0.373699 0.376603
8 1 0.373599 0.377063 0.123756
9 2 0.502855 0.00304953 -0.00127367
10 2 0.750873 0.000248578 0.247991
11 2 0.502689 0.249072 0.25315
12 2 0.753012 0.253004 -0.00296942
13 1 0.626901 0.126886 0.124349
14 1 0.873253 0.126024 0.375381
15 1 0.623878 0.373746 0.377188
16 1 0.874192 0.375287 0.125915
17 2 0.000706907 0.500154 -0.000800409
18 2 0.250623 0.498954 0.251496
19 2 -0.00247017 0.750306 0.247066
20 2 0.249532 0.748879 0.00198043
21 1 0.127052 0.624266 0.125445
22 1 0.374851 0.623359 0.373431
23 1 0.125196 0.873366 0.373442
24 1 0.374875 0.873847 0.123699
25 2 0.50147 0.496435 0.00249127
26 2 0.750507 0.499448 0.248625
27 2 0.502594 0.748007 0.249368
28 2 0.750897 0.752696 0.00317042
29 1 0.624957 0.626213 0.125722
30 1 0.873758 0.62427 0.37466
31 1 0.626303 0.875329 0.374042
32 1 0.874403 0.874281 0.125628
33 2 -0.00236057 -0.000163507 0.50145
34 2 0.247009 -0.00307306 0.7496
35 2 0.000926495 0.249877 0.751172
36 2 0.247221 0.251416 0.49701
37 1 0.126238 0.12619 0.626872
38 1 0.375765 0.124419 0.873446
39 1 0.126286 0.377357 0.874397
40 1 0.37477 0.37348 0.623428
41 2 0.498517 0.00204287 0.496889
42 2 0.749702 0.00200774 0.751479
43 2 0.498994 0.251453 0.747753
44 2 0.746881 0.252787 0.501147
45 1 0.626682 0.123925 0.626672
46 1 0.87488 0.124307 0.874104
47 1 0.626294 0.375855 0.876549
48 1 0.875098 0.375703 0.62691
49 2 0.00261988 0.498324 0.50175
50 2 0.250283 0.499293 0.750444
51 2 -0.000292761 0.751583 0.752277
52 2 0.24672 0.747715 0.498792
53 1 0.124058 0.626286 0.623248
55 1 0.123264 0.873392 0.873989
56 1 0.373345 0.873303 0.623985
54 1 0.876911 0.875616 0.625252
57 2 0.501479 0.498925 0.500153
58 2 0.748886 0.502702 0.748974
59 2 0.499423 0.748434 0.7524
60 2 0.75284 0.747049 0.501772
61 1 0.626539 0.625648 0.624763
62 1 0.875085 0.625485 0.873877
63 1 0.625208 0.87567 0.876471
ITEM: TIMESTEP
40
ITEM: NUMBER OF ATOMS
63
ITEM: BOX BOUNDS pp pp pp
2.4320911497746067e-02 8.6956790885022599e+00
2.4320911497746067e-02 8.6956790885022599e+00
2.4320911497746067e-02 8.6956790885022599e+00
ITEM: ATOMS id type xs ys zs
1 2 -0.00349656 0.00304991 0.0038779
2 2 0.245999 -0.00406842 0.246066
3 2 0.00217811 0.250973 0.253645
4 2 0.252421 0.248785 -0.0026487
5 1 0.12364 0.126922 0.127789
6 1 0.372877 0.124242 0.372212
7 1 0.123648 0.3733 0.377117
8 1 0.373103 0.377741 0.123327
9 2 0.503722 0.00399341 -0.00164935
10 2 0.751148 0.000348369 0.247377
11 2 0.503469 0.24881 0.254063
12 2 0.753958 0.253919 -0.00386662
13 1 0.627544 0.127522 0.124123
14 1 0.872677 0.126368 0.37552
15 1 0.623526 0.373361 0.377891
16 1 0.873971 0.375384 0.126202
17 2 0.000932311 0.500217 -0.00103254
18 2 0.250775 0.498599 0.251957
19 2 -0.00321638 0.750346 0.24618
20 2 0.248961 0.748944 0.00297
21 1 0.127747 0.623951 0.125549
22 1 0.374819 0.62282 0.372939
23 1 0.125211 0.872832 0.37293
24 1 0.374926 0.873429 0.123213
25 2 0.502403 0.494941 0.00372137
26 2 0.750607 0.499261 0.248251
27 2 0.503361 0.747417 0.249181
28 2 0.751161 0.753499 0.00411854
29 1 0.624911 0.626645 0.125894
30 1 0.873387 0.624003 0.374549
31 1 0.626739 0.875425 0.373735
32 1 0.874211 0.874079 0.125834
33 2 -0.00303502 -0.000180396 0.501873
34 2 0.246111 -0.00403152 0.749479
35 2 0.00122534 0.249868 0.751559
36 2 0.24639 0.251793 0.49611
37 1 0.12662 0.126568 0.62746
38 1 0.376011 0.124218 0.872919
39 1 0.126754 0.37815 0.874274
40 1 0.374747 0.37305 0.622946
41 2 0.498064 0.002631 0.49595
42 2 0.749639 0.00256706 0.751934
43 2 0.498725 0.251882 0.74708
44 2 0.745957 0.253623 0.501559
45 1 0.627197 0.123596 0.627198
46 1 0.874854 0.124112 0.873827
47 1 0.626656 0.376196 0.876952
48 1 0.875127 0.375936 0.627537
49 2 0.00336801 0.497816 0.502278
50 2 0.249984 0.498713 0.750104
51 2 -0.000394767 0.752042 0.752922
52 2 0.245738 0.746993 0.498358
53 1 0.123797 0.626755 0.622763
55 1 0.122743 0.872831 0.873655
56 1 0.372734 0.872688 0.623688
54 1 0.877508 0.875812 0.625365
57 2 0.501915 0.49861 0.500207
58 2 0.748564 0.503536 0.748694
59 2 0.499638 0.74834 0.752753
60 2 0.753723 0.746199 0.502306
61 1 0.626973 0.625792 0.624741
62 1 0.875104 0.625666 0.873537
63 1 0.62524 0.875848 0.877016
ITEM: TIMESTEP
50
ITEM: NUMBER OF ATOMS
63
ITEM: BOX BOUNDS pp pp pp
3.5062260610031259e-02 8.6849377393899747e+00
3.5062260610031259e-02 8.6849377393899747e+00
3.5062260610031259e-02 8.6849377393899747e+00
ITEM: ATOMS id type xs ys zs
1 2 -0.00425603 0.00368613 0.00471879
2 2 0.245149 -0.00496924 0.245186
3 2 0.00255167 0.251214 0.254474
4 2 0.252914 0.248551 -0.00322525
5 1 0.123313 0.127389 0.128427
6 1 0.372319 0.124051 0.371504
7 1 0.123332 0.372932 0.377613
8 1 0.372603 0.378392 0.122903
9 2 0.504518 0.00487767 -0.00198398
10 2 0.751409 0.000463141 0.246811
11 2 0.504152 0.248585 0.254862
12 2 0.754854 0.25476 -0.00468742
13 1 0.628196 0.128165 0.123891
14 1 0.872106 0.126715 0.37567
15 1 0.623191 0.373004 0.378572
16 1 0.873792 0.375481 0.126475
17 2 0.00114913 0.500292 -0.0012356
18 2 0.250879 0.498239 0.252387
19 2 -0.00389727 0.750332 0.245374
20 2 0.248186 0.749235 0.00409162
21 1 0.128432 0.623599 0.125634
22 1 0.374803 0.622287 0.372473
23 1 0.125185 0.872305 0.372423
24 1 0.375033 0.873001 0.1227
25 2 0.503567 0.493336 0.0051436
26 2 0.750647 0.499076 0.247946
27 2 0.504044 0.746892 0.249015
28 2 0.751393 0.754221 0.00497389
29 1 0.624857 0.627078 0.126024
30 1 0.873052 0.623718 0.374438
31 1 0.627176 0.875511 0.373437
32 1 0.874025 0.873908 0.126035
33 2 -0.00361512 -0.000164037 0.502242
34 2 0.245298 -0.00493651 0.749368
35 2 0.00151611 0.249886 0.751942
36 2 0.245645 0.252088 0.495292
37 1 0.126977 0.126932 0.628017
38 1 0.376249 0.124011 0.872383
39 1 0.127238 0.378931 0.874196
40 1 0.374747 0.372667 0.622482
41 2 0.497645 0.00314044 0.495091
42 2 0.749606 0.00303215 0.75236
43 2 0.498511 0.252266 0.746471
44 2 0.745133 0.25438 0.501998
45 1 0.627672 0.123291 0.627698
46 1 0.874841 0.123948 0.873569
47 1 0.626975 0.376567 0.877283
48 1 0.875153 0.376169 0.628156
49 2 0.00401052 0.497352 0.502761
50 2 0.249498 0.497986 0.749495
51 2 -0.000501825 0.752441 0.753471
52 2 0.244851 0.746308 0.497897
53 1 0.123564 0.627235 0.622344
55 1 0.122254 0.872268 0.873347
56 1 0.372096 0.872048 0.623409
54 1 0.87807 0.875998 0.625504
57 2 0.502302 0.498331 0.500266
58 2 0.748282 0.504314 0.748467
59 2 0.500052 0.748463 0.752872
60 2 0.754551 0.745461 0.502794
61 1 0.627356 0.625899 0.624747
62 1 0.875113 0.625864 0.873227
63 1 0.62526 0.876004 0.877582
ITEM: TIMESTEP
60
ITEM: NUMBER OF ATOMS
63
ITEM: BOX BOUNDS pp pp pp
4.5410391075138001e-02 8.6745896089248706e+00
4.5410391075138001e-02 8.6745896089248706e+00
4.5410391075138001e-02 8.6745896089248706e+00
ITEM: ATOMS id type xs ys zs
1 2 -0.00494054 0.00424312 0.00547771
2 2 0.244399 -0.0057969 0.244372
3 2 0.00281302 0.251452 0.255249
4 2 0.253333 0.248362 -0.00374813
5 1 0.122993 0.127847 0.129026
6 1 0.371744 0.12386 0.370791
7 1 0.12303 0.372602 0.378086
8 1 0.37214 0.378969 0.12249
9 2 0.505228 0.00569012 -0.00226819
10 2 0.751651 0.000597071 0.246305
11 2 0.504717 0.248403 0.255522
12 2 0.755689 0.255513 -0.00541629
13 1 0.628855 0.128816 0.123649
14 1 0.871543 0.127064 0.375834
15 1 0.622877 0.372684 0.379225
16 1 0.873663 0.375578 0.126729
17 2 0.0013552 0.500382 -0.00140309
18 2 0.250924 0.497872 0.252779
19 2 -0.00449789 0.75025 0.244666
20 2 0.247209 0.749756 0.00532359
21 1 0.129064 0.623246 0.125702
22 1 0.374807 0.621763 0.372039
23 1 0.125108 0.871788 0.371922
24 1 0.3752 0.872567 0.122162
25 2 0.504967 0.491652 0.00675098
26 2 0.750617 0.498892 0.247725
27 2 0.504622 0.746447 0.248877
28 2 0.751584 0.754841 0.00571447
29 1 0.6248 0.627502 0.126111
30 1 0.872762 0.623409 0.374328
31 1 0.627613 0.875584 0.373151
32 1 0.873848 0.873778 0.126233
33 2 -0.00408003 -0.000105935 0.502546
34 2 0.244587 -0.00577763 0.749269
35 2 0.00179727 0.249937 0.752323
36 2 0.245006 0.252282 0.494578
37 1 0.127305 0.127277 0.628536
38 1 0.376478 0.123797 0.87184
39 1 0.127734 0.379691 0.874164
40 1 0.374766 0.372336 0.622033
41 2 0.497265 0.00355326 0.494331
42 2 0.749609 0.0033808 0.752751
43 2 0.498365 0.252594 0.74594
44 2 0.744432 0.255039 0.502471
45 1 0.628099 0.123016 0.628164
46 1 0.874844 0.123822 0.873333
47 1 0.627251 0.376966 0.877532
48 1 0.875175 0.376401 0.628765
49 2 0.00452354 0.496942 0.50319
50 2 0.248832 0.497131 0.748603
51 2 -0.000615946 0.752765 0.7539
52 2 0.244083 0.745667 0.497403
53 1 0.123358 0.627719 0.621999
55 1 0.121799 0.871708 0.87308
56 1 0.371432 0.871386 0.623145
54 1 0.87859 0.876172 0.625672
57 2 0.502629 0.498099 0.500331
58 2 0.748052 0.505023 0.748307
59 2 0.500662 0.748803 0.752755
60 2 0.755314 0.744857 0.503227
61 1 0.627683 0.625969 0.624784
62 1 0.875112 0.62608 0.872952
63 1 0.62527 0.876139 0.878166
ITEM: TIMESTEP
70
ITEM: NUMBER OF ATOMS
63
ITEM: BOX BOUNDS pp pp pp
5.3073769836886164e-02 8.6669262301631207e+00
5.3073769836886164e-02 8.6669262301631207e+00
5.3073769836886164e-02 8.6669262301631207e+00
ITEM: ATOMS id type xs ys zs
1 2 -0.00553672 0.00470918 0.00614135
2 2 0.243766 -0.00654135 0.243635
3 2 0.00294262 0.251686 0.255958
4 2 0.253669 0.248222 -0.00420987
5 1 0.12265 0.128296 0.129547
6 1 0.371181 0.123669 0.370101
7 1 0.122743 0.372319 0.378532
8 1 0.371802 0.379374 0.122092
9 2 0.505838 0.00641988 -0.00249344
10 2 0.751871 0.00075439 0.24587
11 2 0.505146 0.248271 0.256022
12 2 0.756453 0.256163 -0.00604022
13 1 0.629513 0.129465 0.123397
14 1 0.870989 0.127417 0.376014
15 1 0.622614 0.372404 0.379821
16 1 0.873606 0.375688 0.126963
17 2 0.00154778 0.500488 -0.00152941
18 2 0.250901 0.497498 0.253134
19 2 -0.00500487 0.750085 0.244075
20 2 0.246034 0.750507 0.00664316
21 1 0.129547 0.62297 0.125753
22 1 0.374838 0.621252 0.37165
23 1 0.124973 0.871281 0.371429
24 1 0.37543 0.872133 0.1216
25 2 0.506605 0.489917 0.00853472
26 2 0.750503 0.498713 0.247601
27 2 0.505078 0.746097 0.248771
28 2 0.751725 0.755341 0.00632
29 1 0.624747 0.627909 0.126152
30 1 0.872523 0.623074 0.374221
31 1 0.628049 0.875644 0.37288
32 1 0.873681 0.873695 0.126424
33 2 -0.00441136 1.51839e-06 0.502773
34 2 0.243996 -0.00654584 0.749184
35 2 0.00206755 0.250028 0.752701
36 2 0.244495 0.252355 0.493986
37 1 0.127594 0.1276 0.629009
38 1 0.376698 0.123576 0.871288
39 1 0.128236 0.38042 0.874181
40 1 0.374778 0.372059 0.621623
41 2 0.49693 0.00385311 0.493683
42 2 0.749654 0.00359306 0.753102
43 2 0.498295 0.252858 0.7455
44 2 0.743876 0.255583 0.502983
45 1 0.628462 0.122776 0.628585
46 1 0.874873 0.123741 0.873133
47 1 0.627481 0.377392 0.877692
48 1 0.875193 0.376633 0.629363
49 2 0.00488552 0.496595 0.503558
50 2 0.247997 0.496165 0.747417
51 2 -0.000738957 0.752999 0.754188
52 2 0.243453 0.745079 0.496869
53 1 0.123165 0.628191 0.621735
55 1 0.121416 0.871162 0.872899
56 1 0.370758 0.870713 0.622895
54 1 0.879026 0.876333 0.625842
57 2 0.502885 0.497923 0.500405
58 2 0.747882 0.505648 0.748225
59 2 0.501462 0.749361 0.752398
60 2 0.755998 0.744408 0.503595
61 1 0.627948 0.626001 0.624848
62 1 0.875096 0.626315 0.87272
63 1 0.625275 0.876254 0.878765
ITEM: TIMESTEP
80
ITEM: NUMBER OF ATOMS
63
ITEM: BOX BOUNDS pp pp pp
5.4113098055974973e-02 8.6658869019440328e+00
5.4113098055974973e-02 8.6658869019440328e+00
5.4113098055974973e-02 8.6658869019440328e+00
ITEM: ATOMS id type xs ys zs
1 2 -0.00603267 0.00507417 0.00669782
2 2 0.243265 -0.00719667 0.242982
3 2 0.00292386 0.251913 0.256593
4 2 0.253912 0.248136 -0.00460497
5 1 0.12223 0.128734 0.129928
6 1 0.370688 0.123475 0.369491
7 1 0.122474 0.37209 0.378948
8 1 0.371667 0.37952 0.121711
9 2 0.506337 0.00705745 -0.00265279
10 2 0.752065 0.000939071 0.245516
11 2 0.505424 0.248192 0.256343
12 2 0.757134 0.2567 -0.00655045
13 1 0.63012 0.130063 0.123133
14 1 0.870447 0.127771 0.376212
15 1 0.622463 0.372171 0.380295
16 1 0.873672 0.375858 0.127174
17 2 0.00172361 0.500616 -0.00161035
18 2 0.250803 0.497114 0.253453
19 2 -0.00540778 0.749828 0.243617
20 2 0.244669 0.751489 0.00802736
21 1 0.12979 0.622823 0.125755
22 1 0.374932 0.620782 0.37137
23 1 0.124774 0.870788 0.370945
24 1 0.375723 0.871705 0.121025
25 2 0.508482 0.488162 0.0104831
26 2 0.750299 0.498541 0.247584
27 2 0.505395 0.745854 0.248702
28 2 0.75181 0.755708 0.00677307
29 1 0.624703 0.62829 0.126146
30 1 0.872342 0.62271 0.374115
31 1 0.628468 0.875688 0.37264
32 1 0.873542 0.873664 0.126594
33 2 -0.00459465 0.000164073 0.502913
34 2 0.243539 -0.0072337 0.749114
35 2 0.00232582 0.250164 0.753078
36 2 0.244131 0.252293 0.493532
37 1 0.127795 0.127879 0.629405
38 1 0.376934 0.123347 0.870756
39 1 0.128715 0.381109 0.874221
40 1 0.37474 0.37186 0.621306
41 2 0.496641 0.00402567 0.49316
42 2 0.749743 0.00365237 0.753412
43 2 0.498311 0.253053 0.745163
44 2 0.743484 0.255997 0.50354
45 1 0.62871 0.122573 0.628911
46 1 0.874976 0.12371 0.873013
47 1 0.627664 0.37784 0.877755
48 1 0.875206 0.376862 0.629948
49 2 0.00507852 0.496321 0.503858
50 2 0.246999 0.495105 0.745929
51 2 -0.00087225 0.753127 0.754321
52 2 0.24298 0.744554 0.496291
53 1 0.122934 0.628578 0.621557
55 1 0.121202 0.870675 0.872874
56 1 0.370135 0.870088 0.622656
54 1 0.879307 0.87649 0.625958
57 2 0.50306 0.497814 0.50049
58 2 0.747779 0.50618 0.74823
59 2 0.502448 0.750136 0.751798
60 2 0.756595 0.74413 0.503891
61 1 0.628148 0.625996 0.624941
62 1 0.875025 0.626533 0.872536
63 1 0.625283 0.876349 0.879368
ITEM: TIMESTEP
90
ITEM: NUMBER OF ATOMS
63
ITEM: BOX BOUNDS pp pp pp
4.6088397611297793e-02 8.6739116023887100e+00
4.6088397611297793e-02 8.6739116023887100e+00
4.6088397611297793e-02 8.6739116023887100e+00
ITEM: ATOMS id type xs ys zs
1 2 -0.00641876 0.0053307 0.00713708
2 2 0.242906 -0.00775746 0.242421
3 2 0.00274552 0.252132 0.257144
4 2 0.254058 0.248105 -0.00493011
5 1 0.121706 0.129155 0.130134
6 1 0.370292 0.12328 0.368987
7 1 0.122223 0.371925 0.379335
8 1 0.371781 0.379368 0.121366
9 2 0.506715 0.00759505 -0.0027419
10 2 0.752228 0.00115447 0.245253
11 2 0.505542 0.248167 0.256476
12 2 0.757726 0.257116 -0.00694135
13 1 0.630646 0.130583 0.122859
14 1 0.869927 0.12812 0.376431
15 1 0.622448 0.371994 0.380617
16 1 0.873893 0.376117 0.127362
17 2 0.00188004 0.500766 -0.00164391
18 2 0.250627 0.496721 0.253732
19 2 -0.00570087 0.749473 0.243304
20 2 0.243121 0.752699 0.00945587
21 1 0.129758 0.622819 0.125699
22 1 0.375104 0.620371 0.371233
23 1 0.124506 0.870311 0.37047
24 1 0.376042 0.871293 0.120468
25 2 0.510592 0.486414 0.0125814
26 2 0.750001 0.498379 0.24768
27 2 0.505562 0.745726 0.248672
28 2 0.751834 0.755929 0.0070614
29 1 0.62468 0.628633 0.126096
30 1 0.872223 0.622316 0.374014
31 1 0.62884 0.875718 0.372461
32 1 0.87346 0.873689 0.126713
33 2 -0.00462231 0.000384085 0.502961
34 2 0.243228 -0.00783519 0.749061
35 2 0.00257095 0.250348 0.753451
36 2 0.243925 0.252087 0.493229
37 1 0.127857 0.12809 0.629696
38 1 0.37721 0.12311 0.870271
39 1 0.129138 0.38175 0.874258
40 1 0.374644 0.371757 0.621109
41 2 0.496403 0.00406059 0.49277
42 2 0.749878 0.00354989 0.753679
43 2 0.498415 0.253175 0.744936
44 2 0.743269 0.256271 0.504143
45 1 0.628814 0.122412 0.629117
46 1 0.875177 0.123733 0.873001
47 1 0.6278 0.378305 0.877719
48 1 0.875214 0.377081 0.63051
49 2 0.00508979 0.496127 0.504088
50 2 0.245846 0.493967 0.744139
51 2 -0.00101566 0.753142 0.754287
52 2 0.242673 0.744097 0.495666
53 1 0.122641 0.628814 0.621468
55 1 0.121206 0.870281 0.873036
56 1 0.369611 0.869558 0.62243
54 1 0.879389 0.87666 0.626001
57 2 0.503149 0.497778 0.500586
58 2 0.747747 0.506609 0.74833
59 2 0.50361 0.751125 0.750956
60 2 0.757093 0.744031 0.504109
61 1 0.628281 0.625957 0.625058
62 1 0.87487 0.626714 0.872415
63 1 0.625326 0.876427 0.879941
ITEM: TIMESTEP
100
ITEM: NUMBER OF ATOMS
63
ITEM: BOX BOUNDS pp pp pp
3.0794830772155279e-02 8.6892051692278542e+00
3.0794830772155279e-02 8.6892051692278542e+00
3.0794830772155279e-02 8.6892051692278542e+00
ITEM: ATOMS id type xs ys zs
1 2 -0.00668831 0.00547546 0.00745162
2 2 0.242694 -0.00821551 0.241954
3 2 0.00240375 0.252343 0.257606
4 2 0.254106 0.248131 -0.00518456
5 1 0.12109 0.12956 0.130173
6 1 0.369989 0.123082 0.368583
7 1 0.121994 0.37182 0.379687
8 1 0.372114 0.378959 0.121082
9 2 0.506968 0.00802632 -0.00275977
10 2 0.752358 0.00140163 0.245085
11 2 0.505499 0.248195 0.256414
12 2 0.758221 0.257411 -0.00720788
13 1 0.631097 0.13103 0.122574
14 1 0.869435 0.128461 0.37667
15 1 0.622554 0.371876 0.380798
16 1 0.874261 0.376454 0.127524
17 2 0.00201615 0.500945 -0.00163071
18 2 0.250378 0.496323 0.253954
19 2 -0.00588445 0.749021 0.243142
20 2 0.2414 0.754129 0.0109146
21 1 0.129497 0.622932 0.125615
22 1 0.375329 0.62 0.371192
23 1 0.124171 0.86985 0.370007
24 1 0.376371 0.870905 0.119949
25 2 0.512925 0.484689 0.0148134
26 2 0.749616 0.498233 0.247889
27 2 0.505577 0.745716 0.24868
28 2 0.751795 0.756001 0.00717981
29 1 0.624684 0.628929 0.126007
30 1 0.872166 0.621895 0.373918
31 1 0.629165 0.875731 0.37234
32 1 0.873432 0.87377 0.126787
33 2 -0.00449598 0.000659622 0.502912
34 2 0.243067 -0.00834436 0.749024
35 2 0.0028018 0.250582 0.75382
36 2 0.243883 0.251736 0.493082
37 1 0.127802 0.128242 0.629888
38 1 0.377513 0.122867 0.869825
39 1 0.129507 0.382337 0.874295
40 1 0.374491 0.371738 0.621016
41 2 0.496215 0.00395362 0.492517
42 2 0.750058 0.00328908 0.753902
43 2 0.498607 0.253226 0.744825
44 2 0.743236 0.256401 0.504788
45 1 0.628798 0.122291 0.629226
46 1 0.875453 0.123811 0.873072
47 1 0.627893 0.378781 0.877583
48 1 0.875217 0.377293 0.63105
49 2 0.004913 0.496018 0.504245
50 2 0.244542 0.492761 0.742053
51 2 -0.00116635 0.753047 0.754089
52 2 0.242537 0.743712 0.495
53 1 0.122271 0.628905 0.621465
55 1 0.121384 0.869972 0.873358
56 1 0.369192 0.869126 0.622214
54 1 0.87931 0.876831 0.625998
57 2 0.50315 0.497813 0.500694
58 2 0.747787 0.50693 0.748527
59 2 0.504944 0.752324 0.749872
60 2 0.757484 0.74411 0.504242
61 1 0.628347 0.625886 0.625198
62 1 0.874647 0.626868 0.872355
63 1 0.625421 0.876488 0.880465
ITEM: TIMESTEP
110
ITEM: NUMBER OF ATOMS
63
ITEM: BOX BOUNDS pp pp pp
1.2790297504648329e-02 8.7072097024953585e+00
1.2790297504648329e-02 8.7072097024953585e+00
1.2790297504648329e-02 8.7072097024953585e+00
ITEM: ATOMS id type xs ys zs
1 2 -0.00683847 0.005509 0.00763669
2 2 0.242625 -0.00856169 0.241582
3 2 0.00190178 0.252544 0.257975
4 2 0.25406 0.248216 -0.00536999
5 1 0.120427 0.129945 0.130088
6 1 0.36974 0.122881 0.368242
7 1 0.121787 0.371773 0.380004
8 1 0.372571 0.37838 0.120859
9 2 0.507099 0.00834538 -0.0027089
10 2 0.752451 0.00167963 0.245015
11 2 0.505302 0.248271 0.256163
12 2 0.758618 0.257589 -0.00734677
13 1 0.631509 0.131442 0.122281
14 1 0.868967 0.128799 0.37693
15 1 0.622735 0.37181 0.380886
16 1 0.874731 0.37683 0.12766
17 2 0.00213256 0.501155 -0.00157376
18 2 0.250064 0.495927 0.2541
19 2 -0.00596433 0.748479 0.24313
20 2 0.239516 0.755771 0.0123958
21 1 0.129093 0.623096 0.125533
22 1 0.375579 0.61965 0.371201
23 1 0.123771 0.869409 0.369556
24 1 0.376725 0.87054 0.119461
25 2 0.515465 0.482997 0.0171612
26 2 0.749153 0.498103 0.248204
27 2 0.505441 0.74582 0.248723
28 2 0.751695 0.755927 0.00713007
29 1 0.624711 0.629181 0.125888
30 1 0.872171 0.62145 0.373829
31 1 0.62947 0.87573 0.372247
32 1 0.873429 0.873905 0.126842
33 2 -0.00422529 0.00098508 0.502771
34 2 0.243059 -0.00875687 0.749005
35 2 0.00301735 0.250864 0.754181
36 2 0.244005 0.251247 0.493093
37 1 0.127687 0.128357 0.630012
38 1 0.377807 0.122621 0.869391
39 1 0.129852 0.382865 0.874363
40 1 0.374305 0.371774 0.620977
41 2 0.496079 0.00370614 0.4924
42 2 0.750282 0.00288216 0.754081
43 2 0.49888 0.253209 0.744826
44 2 0.743382 0.256387 0.505469
45 1 0.628703 0.122211 0.62928
46 1 0.875759 0.123944 0.873184
47 1 0.627947 0.379262 0.877351
48 1 0.875215 0.377501 0.631572
49 2 0.00454792 0.495994 0.50433
50 2 0.243087 0.491495 0.739687
51 2 -0.00131965 0.752852 0.753738
52 2 0.242565 0.743399 0.494307
53 1 0.121843 0.628893 0.621539
55 1 0.121628 0.86971 0.873774
56 1 0.368851 0.868767 0.622006
54 1 0.879149 0.876984 0.626009
57 2 0.503067 0.49791 0.500814
58 2 0.747897 0.507142 0.748818
59 2 0.50644 0.75373 0.748549
60 2 0.757763 0.744358 0.504288
61 1 0.628351 0.625785 0.625358
62 1 0.874399 0.627034 0.872352
63 1 0.625555 0.876536 0.880948
ITEM: TIMESTEP
120
ITEM: NUMBER OF ATOMS
63
ITEM: BOX BOUNDS pp pp pp
-4.3392480133013223e-03 8.7243392480133117e+00
-4.3392480133013223e-03 8.7243392480133117e+00
-4.3392480133013223e-03 8.7243392480133117e+00
ITEM: ATOMS id type xs ys zs
1 2 -0.00686989 0.00543456 0.00768989
2 2 0.242694 -0.00879023 0.241304
3 2 0.00124851 0.252737 0.258248
4 2 0.253929 0.24836 -0.00549001
5 1 0.119769 0.130305 0.129929
6 1 0.369499 0.122678 0.367917
7 1 0.121602 0.371779 0.380287
8 1 0.373056 0.377709 0.120688
9 2 0.50711 0.0085477 -0.00259476
10 2 0.752507 0.00198684 0.245043
11 2 0.504962 0.248389 0.25573
12 2 0.758917 0.257656 -0.00735929
13 1 0.631911 0.13185 0.121983
14 1 0.868527 0.129133 0.377211
15 1 0.622944 0.371793 0.380928
16 1 0.875264 0.377211 0.127767
17 2 0.00222992 0.5014 -0.00147784
18 2 0.249696 0.495538 0.254156
19 2 -0.00594982 0.747855 0.243265
20 2 0.237484 0.757609 0.0138944
21 1 0.128624 0.623235 0.125457
22 1 0.37585 0.619319 0.371255
23 1 0.123311 0.868989 0.369118
24 1 0.377121 0.870203 0.118991
25 2 0.518193 0.481339 0.0196026
26 2 0.748629 0.497994 0.248618
27 2 0.505163 0.74603 0.248794
28 2 0.751537 0.755714 0.00691938
29 1 0.624763 0.62939 0.125747
30 1 0.872234 0.620986 0.373749
31 1 0.629759 0.875715 0.372172
32 1 0.873442 0.874089 0.126889
33 2 -0.00382524 0.00135214 0.502543
34 2 0.2432 -0.00907093 0.749001
35 2 0.00321659 0.251192 0.754533
36 2 0.244282 0.250629 0.493258
37 1 0.127531 0.128436 0.630081
38 1 0.37808 0.122375 0.868962
39 1 0.130186 0.383331 0.874476
40 1 0.37413 0.371856 0.620946
41 2 0.495991 0.00332379 0.492414
42 2 0.750545 0.00234681 0.754218
43 2 0.499226 0.25313 0.744936
44 2 0.743697 0.256235 0.506177
45 1 0.628538 0.122169 0.629287
46 1 0.876088 0.124127 0.87333
47 1 0.627969 0.37974 0.877027
48 1 0.875208 0.377704 0.632074
49 2 0.00399971 0.496052 0.504347
50 2 0.241479 0.490173 0.737065
51 2 -0.00147045 0.752566 0.75325
52 2 0.242747 0.743155 0.493605
53 1 0.121406 0.628825 0.62168
55 1 0.121894 0.869485 0.874255
56 1 0.368541 0.868435 0.621805
54 1 0.878933 0.87712 0.626056
57 2 0.502906 0.498061 0.500943
58 2 0.748072 0.507247 0.749199
59 2 0.508091 0.755336 0.746992
60 2 0.757927 0.744763 0.504244
61 1 0.628298 0.625659 0.625535
62 1 0.874142 0.627222 0.872406
63 1 0.62571 0.876572 0.881404
ITEM: TIMESTEP
130
ITEM: NUMBER OF ATOMS
63
ITEM: BOX BOUNDS pp pp pp
-1.8667140178820318e-02 8.7386671401788298e+00
-1.8667140178820318e-02 8.7386671401788298e+00
-1.8667140178820318e-02 8.7386671401788298e+00
ITEM: ATOMS id type xs ys zs
1 2 -0.00678547 0.00525746 0.00761093
2 2 0.242888 -0.00889947 0.241118
3 2 0.000457919 0.252921 0.258427
4 2 0.25372 0.248559 -0.00554944
5 1 0.119138 0.130634 0.129714
6 1 0.369257 0.122472 0.367598
7 1 0.12144 0.371834 0.380537
8 1 0.373554 0.376969 0.120574
9 2 0.50701 0.00863089 -0.0024248
10 2 0.752526 0.00232073 0.245167
11 2 0.504491 0.248543 0.25513
12 2 0.75912 0.257624 -0.00725054
13 1 0.6323 0.132252 0.121682
14 1 0.86812 0.129462 0.377509
15 1 0.623171 0.371822 0.380932
16 1 0.875846 0.377592 0.127846
17 2 0.00230866 0.501681 -0.00134883
18 2 0.249289 0.495163 0.254117
19 2 -0.00585243 0.747164 0.243537
20 2 0.235322 0.759625 0.0154061
21 1 0.128107 0.623335 0.12539
22 1 0.376139 0.61901 0.37135
23 1 0.1228 0.868592 0.368693
24 1 0.377563 0.869898 0.118533
25 2 0.521078 0.479714 0.0221088
26 2 0.748061 0.497908 0.249118
27 2 0.504756 0.746335 0.248887