ITEM: TIMESTEP
0
ITEM: NUMBER OF ATOMS
512
ITEM: BOX BOUNDS pp pp pp
0.0000000000000000e+00 1.7440000000000001e+01
0.0000000000000000e+00 1.7440000000000001e+01
0.0000000000000000e+00 1.7440000000000001e+01
ITEM: ATOMS id type xs ys zs
1 2 0 0 0
2 2 0.125 0 0.125
3 2 0 0.125 0.125
4 2 0.125 0.125 0
5 1 0.0625 0.0625 0.0625
6 1 0.1875 0.0625 0.1875
7 1 0.0625 0.1875 0.1875
8 1 0.1875 0.1875 0.0625
9 2 0.25 0 0
10 2 0.375 0 0.125
11 2 0.25 0.125 0.125
12 2 0.375 0.125 0
13 1 0.3125 0.0625 0.0625
14 1 0.4375 0.0625 0.1875
15 1 0.3125 0.1875 0.1875
16 1 0.4375 0.1875 0.0625
17 2 0.5 0 0
18 2 0.625 0 0.125
19 2 0.5 0.125 0.125
20 2 0.625 0.125 0
21 1 0.5625 0.0625 0.0625
22 1 0.6875 0.0625 0.1875
23 1 0.5625 0.1875 0.1875
24 1 0.6875 0.1875 0.0625
25 2 0.75 0 0
26 2 0.875 0 0.125
27 2 0.75 0.125 0.125
28 2 0.875 0.125 0
29 1 0.8125 0.0625 0.0625
30 1 0.9375 0.0625 0.1875
31 1 0.8125 0.1875 0.1875
32 1 0.9375 0.1875 0.0625
33 2 0 0.25 0
34 2 0.125 0.25 0.125
35 2 0 0.375 0.125
36 2 0.125 0.375 0
37 1 0.0625 0.3125 0.0625
38 1 0.1875 0.3125 0.1875
39 1 0.0625 0.4375 0.1875
40 1 0.1875 0.4375 0.0625
41 2 0.25 0.25 0
42 2 0.375 0.25 0.125
43 2 0.25 0.375 0.125
44 2 0.375 0.375 0
45 1 0.3125 0.3125 0.0625
46 1 0.4375 0.3125 0.1875
47 1 0.3125 0.4375 0.1875
48 1 0.4375 0.4375 0.0625
49 2 0.5 0.25 0
50 2 0.625 0.25 0.125
51 2 0.5 0.375 0.125
52 2 0.625 0.375 0
53 1 0.5625 0.3125 0.0625
54 1 0.6875 0.3125 0.1875
55 1 0.5625 0.4375 0.1875
56 1 0.6875 0.4375 0.0625
57 2 0.75 0.25 0
58 2 0.875 0.25 0.125
59 2 0.75 0.375 0.125
60 2 0.875 0.375 0
61 1 0.8125 0.3125 0.0625
62 1 0.9375 0.3125 0.1875
63 1 0.8125 0.4375 0.1875
64 1 0.9375 0.4375 0.0625
65 2 0 0.5 0
66 2 0.125 0.5 0.125
67 2 0 0.625 0.125
68 2 0.125 0.625 0
69 1 0.0625 0.5625 0.0625
70 1 0.1875 0.5625 0.1875
71 1 0.0625 0.6875 0.1875
72 1 0.1875 0.6875 0.0625
73 2 0.25 0.5 0
74 2 0.375 0.5 0.125
75 2 0.25 0.625 0.125
76 2 0.375 0.625 0
77 1 0.3125 0.5625 0.0625
78 1 0.4375 0.5625 0.1875
79 1 0.3125 0.6875 0.1875
80 1 0.4375 0.6875 0.0625
81 2 0.5 0.5 0
82 2 0.625 0.5 0.125
83 2 0.5 0.625 0.125
84 2 0.625 0.625 0
85 1 0.5625 0.5625 0.0625
86 1 0.6875 0.5625 0.1875
87 1 0.5625 0.6875 0.1875
88 1 0.6875 0.6875 0.0625
89 2 0.75 0.5 0
90 2 0.875 0.5 0.125
91 2 0.75 0.625 0.125
92 2 0.875 0.625 0
93 1 0.8125 0.5625 0.0625
94 1 0.9375 0.5625 0.1875
95 1 0.8125 0.6875 0.1875
96 1 0.9375 0.6875 0.0625
97 2 0 0.75 0
98 2 0.125 0.75 0.125
99 2 0 0.875 0.125
100 2 0.125 0.875 0
101 1 0.0625 0.8125 0.0625
102 1 0.1875 0.8125 0.1875
103 1 0.0625 0.9375 0.1875
104 1 0.1875 0.9375 0.0625
105 2 0.25 0.75 0
106 2 0.375 0.75 0.125
107 2 0.25 0.875 0.125
108 2 0.375 0.875 0
109 1 0.3125 0.8125 0.0625
110 1 0.4375 0.8125 0.1875
111 1 0.3125 0.9375 0.1875
112 1 0.4375 0.9375 0.0625
113 2 0.5 0.75 0
114 2 0.625 0.75 0.125
115 2 0.5 0.875 0.125
116 2 0.625 0.875 0
117 1 0.5625 0.8125 0.0625
118 1 0.6875 0.8125 0.1875
119 1 0.5625 0.9375 0.1875
120 1 0.6875 0.9375 0.0625
121 2 0.75 0.75 0
122 2 0.875 0.75 0.125
123 2 0.75 0.875 0.125
124 2 0.875 0.875 0
125 1 0.8125 0.8125 0.0625
126 1 0.9375 0.8125 0.1875
127 1 0.8125 0.9375 0.1875
128 1 0.9375 0.9375 0.0625
129 2 0 0 0.25
130 2 0.125 0 0.375
131 2 0 0.125 0.375
132 2 0.125 0.125 0.25
133 1 0.0625 0.0625 0.3125
134 1 0.1875 0.0625 0.4375
135 1 0.0625 0.1875 0.4375
136 1 0.1875 0.1875 0.3125
137 2 0.25 0 0.25
138 2 0.375 0 0.375
139 2 0.25 0.125 0.375
140 2 0.375 0.125 0.25
141 1 0.3125 0.0625 0.3125
142 1 0.4375 0.0625 0.4375
143 1 0.3125 0.1875 0.4375
144 1 0.4375 0.1875 0.3125
145 2 0.5 0 0.25
146 2 0.625 0 0.375
147 2 0.5 0.125 0.375
148 2 0.625 0.125 0.25
149 1 0.5625 0.0625 0.3125
150 1 0.6875 0.0625 0.4375
151 1 0.5625 0.1875 0.4375
152 1 0.6875 0.1875 0.3125
153 2 0.75 0 0.25
154 2 0.875 0 0.375
155 2 0.75 0.125 0.375
156 2 0.875 0.125 0.25
157 1 0.8125 0.0625 0.3125
158 1 0.9375 0.0625 0.4375
159 1 0.8125 0.1875 0.4375
160 1 0.9375 0.1875 0.3125
161 2 0 0.25 0.25
162 2 0.125 0.25 0.375
163 2 0 0.375 0.375
164 2 0.125 0.375 0.25
165 1 0.0625 0.3125 0.3125
166 1 0.1875 0.3125 0.4375
167 1 0.0625 0.4375 0.4375
168 1 0.1875 0.4375 0.3125
169 2 0.25 0.25 0.25
170 2 0.375 0.25 0.375
171 2 0.25 0.375 0.375
172 2 0.375 0.375 0.25
173 1 0.3125 0.3125 0.3125
174 1 0.4375 0.3125 0.4375
175 1 0.3125 0.4375 0.4375
176 1 0.4375 0.4375 0.3125
177 2 0.5 0.25 0.25
178 2 0.625 0.25 0.375
179 2 0.5 0.375 0.375
180 2 0.625 0.375 0.25
181 1 0.5625 0.3125 0.3125
182 1 0.6875 0.3125 0.4375
183 1 0.5625 0.4375 0.4375
184 1 0.6875 0.4375 0.3125
185 2 0.75 0.25 0.25
186 2 0.875 0.25 0.375
187 2 0.75 0.375 0.375
188 2 0.875 0.375 0.25
189 1 0.8125 0.3125 0.3125
190 1 0.9375 0.3125 0.4375
191 1 0.8125 0.4375 0.4375
192 1 0.9375 0.4375 0.3125
193 2 0 0.5 0.25
194 2 0.125 0.5 0.375
195 2 0 0.625 0.375
196 2 0.125 0.625 0.25
197 1 0.0625 0.5625 0.3125
198 1 0.1875 0.5625 0.4375
199 1 0.0625 0.6875 0.4375
200 1 0.1875 0.6875 0.3125
201 2 0.25 0.5 0.25
202 2 0.375 0.5 0.375
203 2 0.25 0.625 0.375
204 2 0.375 0.625 0.25
205 1 0.3125 0.5625 0.3125
206 1 0.4375 0.5625 0.4375
207 1 0.3125 0.6875 0.4375
208 1 0.4375 0.6875 0.3125
209 2 0.5 0.5 0.25
210 2 0.625 0.5 0.375
211 2 0.5 0.625 0.375
212 2 0.625 0.625 0.25
213 1 0.5625 0.5625 0.3125
214 1 0.6875 0.5625 0.4375
215 1 0.5625 0.6875 0.4375
216 1 0.6875 0.6875 0.3125
217 2 0.75 0.5 0.25
218 2 0.875 0.5 0.375
219 2 0.75 0.625 0.375
220 2 0.875 0.625 0.25
221 1 0.8125 0.5625 0.3125
222 1 0.9375 0.5625 0.4375
223 1 0.8125 0.6875 0.4375
224 1 0.9375 0.6875 0.3125
225 2 0 0.75 0.25
226 2 0.125 0.75 0.375
227 2 0 0.875 0.375
228 2 0.125 0.875 0.25
229 1 0.0625 0.8125 0.3125
230 1 0.1875 0.8125 0.4375
231 1 0.0625 0.9375 0.4375
232 1 0.1875 0.9375 0.3125
233 2 0.25 0.75 0.25
234 2 0.375 0.75 0.375
235 2 0.25 0.875 0.375
236 2 0.375 0.875 0.25
237 1 0.3125 0.8125 0.3125
238 1 0.4375 0.8125 0.4375
239 1 0.3125 0.9375 0.4375
240 1 0.4375 0.9375 0.3125
241 2 0.5 0.75 0.25
242 2 0.625 0.75 0.375
243 2 0.5 0.875 0.375
244 2 0.625 0.875 0.25
245 1 0.5625 0.8125 0.3125
246 1 0.6875 0.8125 0.4375
247 1 0.5625 0.9375 0.4375
248 1 0.6875 0.9375 0.3125
249 2 0.75 0.75 0.25
250 2 0.875 0.75 0.375
251 2 0.75 0.875 0.375
252 2 0.875 0.875 0.25
253 1 0.8125 0.8125 0.3125
254 1 0.9375 0.8125 0.4375
255 1 0.8125 0.9375 0.4375
256 1 0.9375 0.9375 0.3125
257 2 0 0 0.5
258 2 0.125 0 0.625
259 2 0 0.125 0.625
260 2 0.125 0.125 0.5
261 1 0.0625 0.0625 0.5625
262 1 0.1875 0.0625 0.6875
263 1 0.0625 0.1875 0.6875
264 1 0.1875 0.1875 0.5625
265 2 0.25 0 0.5
266 2 0.375 0 0.625
267 2 0.25 0.125 0.625
268 2 0.375 0.125 0.5
269 1 0.3125 0.0625 0.5625
270 1 0.4375 0.0625 0.6875
271 1 0.3125 0.1875 0.6875
272 1 0.4375 0.1875 0.5625
273 2 0.5 0 0.5
274 2 0.625 0 0.625
275 2 0.5 0.125 0.625
276 2 0.625 0.125 0.5
277 1 0.5625 0.0625 0.5625
278 1 0.6875 0.0625 0.6875
279 1 0.5625 0.1875 0.6875
280 1 0.6875 0.1875 0.5625
281 2 0.75 0 0.5
282 2 0.875 0 0.625
283 2 0.75 0.125 0.625
284 2 0.875 0.125 0.5
285 1 0.8125 0.0625 0.5625
286 1 0.9375 0.0625 0.6875
287 1 0.8125 0.1875 0.6875
288 1 0.9375 0.1875 0.5625
289 2 0 0.25 0.5
290 2 0.125 0.25 0.625
291 2 0 0.375 0.625
292 2 0.125 0.375 0.5
293 1 0.0625 0.3125 0.5625
294 1 0.1875 0.3125 0.6875
295 1 0.0625 0.4375 0.6875
296 1 0.1875 0.4375 0.5625
297 2 0.25 0.25 0.5
298 2 0.375 0.25 0.625
299 2 0.25 0.375 0.625
300 2 0.375 0.375 0.5
301 1 0.3125 0.3125 0.5625
302 1 0.4375 0.3125 0.6875
303 1 0.3125 0.4375 0.6875
304 1 0.4375 0.4375 0.5625
305 2 0.5 0.25 0.5
306 2 0.625 0.25 0.625
307 2 0.5 0.375 0.625
308 2 0.625 0.375 0.5
309 1 0.5625 0.3125 0.5625
310 1 0.6875 0.3125 0.6875
311 1 0.5625 0.4375 0.6875
312 1 0.6875 0.4375 0.5625
313 2 0.75 0.25 0.5
314 2 0.875 0.25 0.625
315 2 0.75 0.375 0.625
316 2 0.875 0.375 0.5
317 1 0.8125 0.3125 0.5625
318 1 0.9375 0.3125 0.6875
319 1 0.8125 0.4375 0.6875
320 1 0.9375 0.4375 0.5625
321 2 0 0.5 0.5
322 2 0.125 0.5 0.625
323 2 0 0.625 0.625
324 2 0.125 0.625 0.5
325 1 0.0625 0.5625 0.5625
326 1 0.1875 0.5625 0.6875
327 1 0.0625 0.6875 0.6875
328 1 0.1875 0.6875 0.5625
329 2 0.25 0.5 0.5
330 2 0.375 0.5 0.625
331 2 0.25 0.625 0.625
332 2 0.375 0.625 0.5
333 1 0.3125 0.5625 0.5625
334 1 0.4375 0.5625 0.6875
335 1 0.3125 0.6875 0.6875
336 1 0.4375 0.6875 0.5625
337 2 0.5 0.5 0.5
338 2 0.625 0.5 0.625
339 2 0.5 0.625 0.625
340 2 0.625 0.625 0.5
341 1 0.5625 0.5625 0.5625
342 1 0.6875 0.5625 0.6875
343 1 0.5625 0.6875 0.6875
344 1 0.6875 0.6875 0.5625
345 2 0.75 0.5 0.5
346 2 0.875 0.5 0.625
347 2 0.75 0.625 0.625
348 2 0.875 0.625 0.5
349 1 0.8125 0.5625 0.5625
350 1 0.9375 0.5625 0.6875
351 1 0.8125 0.6875 0.6875
352 1 0.9375 0.6875 0.5625
353 2 0 0.75 0.5
354 2 0.125 0.75 0.625
355 2 0 0.875 0.625
356 2 0.125 0.875 0.5
357 1 0.0625 0.8125 0.5625
358 1 0.1875 0.8125 0.6875
359 1 0.0625 0.9375 0.6875
360 1 0.1875 0.9375 0.5625
361 2 0.25 0.75 0.5
362 2 0.375 0.75 0.625
363 2 0.25 0.875 0.625
364 2 0.375 0.875 0.5
365 1 0.3125 0.8125 0.5625
366 1 0.4375 0.8125 0.6875
367 1 0.3125 0.9375 0.6875
368 1 0.4375 0.9375 0.5625
369 2 0.5 0.75 0.5
370 2 0.625 0.75 0.625
371 2 0.5 0.875 0.625
372 2 0.625 0.875 0.5
373 1 0.5625 0.8125 0.5625
374 1 0.6875 0.8125 0.6875
375 1 0.5625 0.9375 0.6875
376 1 0.6875 0.9375 0.5625
377 2 0.75 0.75 0.5
378 2 0.875 0.75 0.625
379 2 0.75 0.875 0.625
380 2 0.875 0.875 0.5
381 1 0.8125 0.8125 0.5625
382 1 0.9375 0.8125 0.6875
383 1 0.8125 0.9375 0.6875
384 1 0.9375 0.9375 0.5625
385 2 0 0 0.75
386 2 0.125 0 0.875
387 2 0 0.125 0.875
388 2 0.125 0.125 0.75
389 1 0.0625 0.0625 0.8125
390 1 0.1875 0.0625 0.9375
391 1 0.0625 0.1875 0.9375
392 1 0.1875 0.1875 0.8125
393 2 0.25 0 0.75
394 2 0.375 0 0.875
395 2 0.25 0.125 0.875
396 2 0.375 0.125 0.75
397 1 0.3125 0.0625 0.8125
398 1 0.4375 0.0625 0.9375
399 1 0.3125 0.1875 0.9375
400 1 0.4375 0.1875 0.8125
401 2 0.5 0 0.75
402 2 0.625 0 0.875
403 2 0.5 0.125 0.875
404 2 0.625 0.125 0.75
405 1 0.5625 0.0625 0.8125
406 1 0.6875 0.0625 0.9375
407 1 0.5625 0.1875 0.9375
408 1 0.6875 0.1875 0.8125
409 2 0.75 0 0.75
410 2 0.875 0 0.875
411 2 0.75 0.125 0.875
412 2 0.875 0.125 0.75
413 1 0.8125 0.0625 0.8125
414 1 0.9375 0.0625 0.9375
415 1 0.8125 0.1875 0.9375
416 1 0.9375 0.1875 0.8125
417 2 0 0.25 0.75
418 2 0.125 0.25 0.875
419 2 0 0.375 0.875
420 2 0.125 0.375 0.75
421 1 0.0625 0.3125 0.8125
422 1 0.1875 0.3125 0.9375
423 1 0.0625 0.4375 0.9375
424 1 0.1875 0.4375 0.8125
425 2 0.25 0.25 0.75
426 2 0.375 0.25 0.875
427 2 0.25 0.375 0.875
428 2 0.375 0.375 0.75
429 1 0.3125 0.3125 0.8125
430 1 0.4375 0.3125 0.9375
431 1 0.3125 0.4375 0.9375
432 1 0.4375 0.4375 0.8125
433 2 0.5 0.25 0.75
434 2 0.625 0.25 0.875
435 2 0.5 0.375 0.875
436 2 0.625 0.375 0.75
437 1 0.5625 0.3125 0.8125
438 1 0.6875 0.3125 0.9375
439 1 0.5625 0.4375 0.9375
440 1 0.6875 0.4375 0.8125
441 2 0.75 0.25 0.75
442 2 0.875 0.25 0.875
443 2 0.75 0.375 0.875
444 2 0.875 0.375 0.75
445 1 0.8125 0.3125 0.8125
446 1 0.9375 0.3125 0.9375
447 1 0.8125 0.4375 0.9375
448 1 0.9375 0.4375 0.8125
449 2 0 0.5 0.75
450 2 0.125 0.5 0.875
451 2 0 0.625 0.875
452 2 0.125 0.625 0.75
453 1 0.0625 0.5625 0.8125
454 1 0.1875 0.5625 0.9375
455 1 0.0625 0.6875 0.9375
456 1 0.1875 0.6875 0.8125
457 2 0.25 0.5 0.75
458 2 0.375 0.5 0.875
459 2 0.25 0.625 0.875
460 2 0.375 0.625 0.75
461 1 0.3125 0.5625 0.8125
462 1 0.4375 0.5625 0.9375
463 1 0.3125 0.6875 0.9375
464 1 0.4375 0.6875 0.8125
465 2 0.5 0.5 0.75
466 2 0.625 0.5 0.875
467 2 0.5 0.625 0.875
468 2 0.625 0.625 0.75
469 1 0.5625 0.5625 0.8125
470 1 0.6875 0.5625 0.9375
471 1 0.5625 0.6875 0.9375
472 1 0.6875 0.6875 0.8125
473 2 0.75 0.5 0.75
474 2 0.875 0.5 0.875
475 2 0.75 0.625 0.875
476 2 0.875 0.625 0.75
477 1 0.8125 0.5625 0.8125
478 1 0.9375 0.5625 0.9375
479 1 0.8125 0.6875 0.9375
480 1 0.9375 0.6875 0.8125
481 2 0 0.75 0.75
482 2 0.125 0.75 0.875
483 2 0 0.875 0.875
484 2 0.125 0.875 0.75
485 1 0.0625 0.8125 0.8125
486 1 0.1875 0.8125 0.9375
487 1 0.0625 0.9375 0.9375
488 1 0.1875 0.9375 0.8125
489 2 0.25 0.75 0.75
490 2 0.375 0.75 0.875
491 2 0.25 0.875 0.875
492 2 0.375 0.875 0.75
493 1 0.3125 0.8125 0.8125
494 1 0.4375 0.8125 0.9375
495 1 0.3125 0.9375 0.9375
496 1 0.4375 0.9375 0.8125
497 2 0.5 0.75 0.75
498 2 0.625 0.75 0.875
499 2 0.5 0.875 0.875
500 2 0.625 0.875 0.75
501 1 0.5625 0.8125 0.8125
502 1 0.6875 0.8125 0.9375
503 1 0.5625 0.9375 0.9375
504 1 0.6875 0.9375 0.8125
505 2 0.75 0.75 0.75
506 2 0.875 0.75 0.875
507 2 0.75 0.875 0.875
508 2 0.875 0.875 0.75
509 1 0.8125 0.8125 0.8125
510 1 0.9375 0.8125 0.9375
511 1 0.8125 0.9375 0.9375
512 1 0.9375 0.9375 0.8125