512
Atoms. Timestep: 0
2 0 0 0
2 2.18 0 2.18
2 0 2.18 2.18
2 2.18 2.18 0
1 1.09 1.09 1.09
1 3.27 1.09 3.27
1 1.09 3.27 3.27
1 3.27 3.27 1.09
2 4.36 0 0
2 6.54 0 2.18
2 4.36 2.18 2.18
2 6.54 2.18 0
1 5.45 1.09 1.09
1 7.63 1.09 3.27
1 5.45 3.27 3.27
1 7.63 3.27 1.09
2 8.72 0 0
2 10.9 0 2.18
2 8.72 2.18 2.18
2 10.9 2.18 0
1 9.81 1.09 1.09
1 11.99 1.09 3.27
1 9.81 3.27 3.27
1 11.99 3.27 1.09
2 13.08 0 0
2 15.26 0 2.18
2 13.08 2.18 2.18
2 15.26 2.18 0
1 14.17 1.09 1.09
1 16.35 1.09 3.27
1 14.17 3.27 3.27
1 16.35 3.27 1.09
2 0 4.36 0
2 2.18 4.36 2.18
2 0 6.54 2.18
2 2.18 6.54 0
1 1.09 5.45 1.09
1 3.27 5.45 3.27
1 1.09 7.63 3.27
1 3.27 7.63 1.09
2 4.36 4.36 0
2 6.54 4.36 2.18
2 4.36 6.54 2.18
2 6.54 6.54 0
1 5.45 5.45 1.09
1 7.63 5.45 3.27
1 5.45 7.63 3.27
1 7.63 7.63 1.09
2 8.72 4.36 0
2 10.9 4.36 2.18
2 8.72 6.54 2.18
2 10.9 6.54 0
1 9.81 5.45 1.09
1 11.99 5.45 3.27
1 9.81 7.63 3.27
1 11.99 7.63 1.09
2 13.08 4.36 0
2 15.26 4.36 2.18
2 13.08 6.54 2.18
2 15.26 6.54 0
1 14.17 5.45 1.09
1 16.35 5.45 3.27
1 14.17 7.63 3.27
1 16.35 7.63 1.09
2 0 8.72 0
2 2.18 8.72 2.18
2 0 10.9 2.18
2 2.18 10.9 0
1 1.09 9.81 1.09
1 3.27 9.81 3.27
1 1.09 11.99 3.27
1 3.27 11.99 1.09
2 4.36 8.72 0
2 6.54 8.72 2.18
2 4.36 10.9 2.18
2 6.54 10.9 0
1 5.45 9.81 1.09
1 7.63 9.81 3.27
1 5.45 11.99 3.27
1 7.63 11.99 1.09
2 8.72 8.72 0
2 10.9 8.72 2.18
2 8.72 10.9 2.18
2 10.9 10.9 0
1 9.81 9.81 1.09
1 11.99 9.81 3.27
1 9.81 11.99 3.27
1 11.99 11.99 1.09
2 13.08 8.72 0
2 15.26 8.72 2.18
2 13.08 10.9 2.18
2 15.26 10.9 0
1 14.17 9.81 1.09
1 16.35 9.81 3.27
1 14.17 11.99 3.27
1 16.35 11.99 1.09
2 0 13.08 0
2 2.18 13.08 2.18
2 0 15.26 2.18
2 2.18 15.26 0
1 1.09 14.17 1.09
1 3.27 14.17 3.27
1 1.09 16.35 3.27
1 3.27 16.35 1.09
2 4.36 13.08 0
2 6.54 13.08 2.18
2 4.36 15.26 2.18
2 6.54 15.26 0
1 5.45 14.17 1.09
1 7.63 14.17 3.27
1 5.45 16.35 3.27
1 7.63 16.35 1.09
2 8.72 13.08 0
2 10.9 13.08 2.18
2 8.72 15.26 2.18
2 10.9 15.26 0
1 9.81 14.17 1.09
1 11.99 14.17 3.27
1 9.81 16.35 3.27
1 11.99 16.35 1.09
2 13.08 13.08 0
2 15.26 13.08 2.18
2 13.08 15.26 2.18
2 15.26 15.26 0
1 14.17 14.17 1.09
1 16.35 14.17 3.27
1 14.17 16.35 3.27
1 16.35 16.35 1.09
2 0 0 4.36
2 2.18 0 6.54
2 0 2.18 6.54
2 2.18 2.18 4.36
1 1.09 1.09 5.45
1 3.27 1.09 7.63
1 1.09 3.27 7.63
1 3.27 3.27 5.45
2 4.36 0 4.36
2 6.54 0 6.54
2 4.36 2.18 6.54
2 6.54 2.18 4.36
1 5.45 1.09 5.45
1 7.63 1.09 7.63
1 5.45 3.27 7.63
1 7.63 3.27 5.45
2 8.72 0 4.36
2 10.9 0 6.54
2 8.72 2.18 6.54
2 10.9 2.18 4.36
1 9.81 1.09 5.45
1 11.99 1.09 7.63
1 9.81 3.27 7.63
1 11.99 3.27 5.45
2 13.08 0 4.36
2 15.26 0 6.54
2 13.08 2.18 6.54
2 15.26 2.18 4.36
1 14.17 1.09 5.45
1 16.35 1.09 7.63
1 14.17 3.27 7.63
1 16.35 3.27 5.45
2 0 4.36 4.36
2 2.18 4.36 6.54
2 0 6.54 6.54
2 2.18 6.54 4.36
1 1.09 5.45 5.45
1 3.27 5.45 7.63
1 1.09 7.63 7.63
1 3.27 7.63 5.45
2 4.36 4.36 4.36
2 6.54 4.36 6.54
2 4.36 6.54 6.54
2 6.54 6.54 4.36
1 5.45 5.45 5.45
1 7.63 5.45 7.63
1 5.45 7.63 7.63
1 7.63 7.63 5.45
2 8.72 4.36 4.36
2 10.9 4.36 6.54
2 8.72 6.54 6.54
2 10.9 6.54 4.36
1 9.81 5.45 5.45
1 11.99 5.45 7.63
1 9.81 7.63 7.63
1 11.99 7.63 5.45
2 13.08 4.36 4.36
2 15.26 4.36 6.54
2 13.08 6.54 6.54
2 15.26 6.54 4.36
1 14.17 5.45 5.45
1 16.35 5.45 7.63
1 14.17 7.63 7.63
1 16.35 7.63 5.45
2 0 8.72 4.36
2 2.18 8.72 6.54
2 0 10.9 6.54
2 2.18 10.9 4.36
1 1.09 9.81 5.45
1 3.27 9.81 7.63
1 1.09 11.99 7.63
1 3.27 11.99 5.45
2 4.36 8.72 4.36
2 6.54 8.72 6.54
2 4.36 10.9 6.54
2 6.54 10.9 4.36
1 5.45 9.81 5.45
1 7.63 9.81 7.63
1 5.45 11.99 7.63
1 7.63 11.99 5.45
2 8.72 8.72 4.36
2 10.9 8.72 6.54
2 8.72 10.9 6.54
2 10.9 10.9 4.36
1 9.81 9.81 5.45
1 11.99 9.81 7.63
1 9.81 11.99 7.63
1 11.99 11.99 5.45
2 13.08 8.72 4.36
2 15.26 8.72 6.54
2 13.08 10.9 6.54
2 15.26 10.9 4.36
1 14.17 9.81 5.45
1 16.35 9.81 7.63
1 14.17 11.99 7.63
1 16.35 11.99 5.45
2 0 13.08 4.36
2 2.18 13.08 6.54
2 0 15.26 6.54
2 2.18 15.26 4.36
1 1.09 14.17 5.45
1 3.27 14.17 7.63
1 1.09 16.35 7.63
1 3.27 16.35 5.45
2 4.36 13.08 4.36
2 6.54 13.08 6.54
2 4.36 15.26 6.54
2 6.54 15.26 4.36
1 5.45 14.17 5.45
1 7.63 14.17 7.63
1 5.45 16.35 7.63
1 7.63 16.35 5.45
2 8.72 13.08 4.36
2 10.9 13.08 6.54
2 8.72 15.26 6.54
2 10.9 15.26 4.36
1 9.81 14.17 5.45
1 11.99 14.17 7.63
1 9.81 16.35 7.63
1 11.99 16.35 5.45
2 13.08 13.08 4.36
2 15.26 13.08 6.54
2 13.08 15.26 6.54
2 15.26 15.26 4.36
1 14.17 14.17 5.45
1 16.35 14.17 7.63
1 14.17 16.35 7.63
1 16.35 16.35 5.45
2 0 0 8.72
2 2.18 0 10.9
2 0 2.18 10.9
2 2.18 2.18 8.72
1 1.09 1.09 9.81
1 3.27 1.09 11.99
1 1.09 3.27 11.99
1 3.27 3.27 9.81
2 4.36 0 8.72
2 6.54 0 10.9
2 4.36 2.18 10.9
2 6.54 2.18 8.72
1 5.45 1.09 9.81
1 7.63 1.09 11.99
1 5.45 3.27 11.99
1 7.63 3.27 9.81
2 8.72 0 8.72
2 10.9 0 10.9
2 8.72 2.18 10.9
2 10.9 2.18 8.72
1 9.81 1.09 9.81
1 11.99 1.09 11.99
1 9.81 3.27 11.99
1 11.99 3.27 9.81
2 13.08 0 8.72
2 15.26 0 10.9
2 13.08 2.18 10.9
2 15.26 2.18 8.72
1 14.17 1.09 9.81
1 16.35 1.09 11.99
1 14.17 3.27 11.99
1 16.35 3.27 9.81
2 0 4.36 8.72
2 2.18 4.36 10.9
2 0 6.54 10.9
2 2.18 6.54 8.72
1 1.09 5.45 9.81
1 3.27 5.45 11.99
1 1.09 7.63 11.99
1 3.27 7.63 9.81
2 4.36 4.36 8.72
2 6.54 4.36 10.9
2 4.36 6.54 10.9
2 6.54 6.54 8.72
1 5.45 5.45 9.81
1 7.63 5.45 11.99
1 5.45 7.63 11.99
1 7.63 7.63 9.81
2 8.72 4.36 8.72
2 10.9 4.36 10.9
2 8.72 6.54 10.9
2 10.9 6.54 8.72
1 9.81 5.45 9.81
1 11.99 5.45 11.99
1 9.81 7.63 11.99
1 11.99 7.63 9.81
2 13.08 4.36 8.72
2 15.26 4.36 10.9
2 13.08 6.54 10.9
2 15.26 6.54 8.72
1 14.17 5.45 9.81
1 16.35 5.45 11.99
1 14.17 7.63 11.99
1 16.35 7.63 9.81
2 0 8.72 8.72
2 2.18 8.72 10.9
2 0 10.9 10.9
2 2.18 10.9 8.72
1 1.09 9.81 9.81
1 3.27 9.81 11.99
1 1.09 11.99 11.99
1 3.27 11.99 9.81
2 4.36 8.72 8.72
2 6.54 8.72 10.9
2 4.36 10.9 10.9
2 6.54 10.9 8.72
1 5.45 9.81 9.81
1 7.63 9.81 11.99
1 5.45 11.99 11.99
1 7.63 11.99 9.81
2 8.72 8.72 8.72
2 10.9 8.72 10.9
2 8.72 10.9 10.9
2 10.9 10.9 8.72
1 9.81 9.81 9.81
1 11.99 9.81 11.99
1 9.81 11.99 11.99
1 11.99 11.99 9.81
2 13.08 8.72 8.72
2 15.26 8.72 10.9
2 13.08 10.9 10.9
2 15.26 10.9 8.72
1 14.17 9.81 9.81
1 16.35 9.81 11.99
1 14.17 11.99 11.99
1 16.35 11.99 9.81
2 0 13.08 8.72
2 2.18 13.08 10.9
2 0 15.26 10.9
2 2.18 15.26 8.72
1 1.09 14.17 9.81
1 3.27 14.17 11.99
1 1.09 16.35 11.99
1 3.27 16.35 9.81
2 4.36 13.08 8.72
2 6.54 13.08 10.9
2 4.36 15.26 10.9
2 6.54 15.26 8.72
1 5.45 14.17 9.81
1 7.63 14.17 11.99
1 5.45 16.35 11.99
1 7.63 16.35 9.81
2 8.72 13.08 8.72
2 10.9 13.08 10.9
2 8.72 15.26 10.9
2 10.9 15.26 8.72
1 9.81 14.17 9.81
1 11.99 14.17 11.99
1 9.81 16.35 11.99
1 11.99 16.35 9.81
2 13.08 13.08 8.72
2 15.26 13.08 10.9
2 13.08 15.26 10.9
2 15.26 15.26 8.72
1 14.17 14.17 9.81
1 16.35 14.17 11.99
1 14.17 16.35 11.99
1 16.35 16.35 9.81
2 0 0 13.08
2 2.18 0 15.26
2 0 2.18 15.26
2 2.18 2.18 13.08
1 1.09 1.09 14.17
1 3.27 1.09 16.35
1 1.09 3.27 16.35
1 3.27 3.27 14.17
2 4.36 0 13.08
2 6.54 0 15.26
2 4.36 2.18 15.26
2 6.54 2.18 13.08
1 5.45 1.09 14.17
1 7.63 1.09 16.35
1 5.45 3.27 16.35
1 7.63 3.27 14.17
2 8.72 0 13.08
2 10.9 0 15.26
2 8.72 2.18 15.26
2 10.9 2.18 13.08
1 9.81 1.09 14.17
1 11.99 1.09 16.35
1 9.81 3.27 16.35
1 11.99 3.27 14.17
2 13.08 0 13.08
2 15.26 0 15.26
2 13.08 2.18 15.26
2 15.26 2.18 13.08
1 14.17 1.09 14.17
1 16.35 1.09 16.35
1 14.17 3.27 16.35
1 16.35 3.27 14.17
2 0 4.36 13.08
2 2.18 4.36 15.26
2 0 6.54 15.26
2 2.18 6.54 13.08
1 1.09 5.45 14.17
1 3.27 5.45 16.35
1 1.09 7.63 16.35
1 3.27 7.63 14.17
2 4.36 4.36 13.08
2 6.54 4.36 15.26
2 4.36 6.54 15.26
2 6.54 6.54 13.08
1 5.45 5.45 14.17
1 7.63 5.45 16.35
1 5.45 7.63 16.35
1 7.63 7.63 14.17
2 8.72 4.36 13.08
2 10.9 4.36 15.26
2 8.72 6.54 15.26
2 10.9 6.54 13.08
1 9.81 5.45 14.17
1 11.99 5.45 16.35
1 9.81 7.63 16.35
1 11.99 7.63 14.17
2 13.08 4.36 13.08
2 15.26 4.36 15.26
2 13.08 6.54 15.26
2 15.26 6.54 13.08
1 14.17 5.45 14.17
1 16.35 5.45 16.35
1 14.17 7.63 16.35
1 16.35 7.63 14.17
2 0 8.72 13.08
2 2.18 8.72 15.26
2 0 10.9 15.26
2 2.18 10.9 13.08
1 1.09 9.81 14.17
1 3.27 9.81 16.35
1 1.09 11.99 16.35
1 3.27 11.99 14.17
2 4.36 8.72 13.08
2 6.54 8.72 15.26
2 4.36 10.9 15.26
2 6.54 10.9 13.08
1 5.45 9.81 14.17
1 7.63 9.81 16.35
1 5.45 11.99 16.35
1 7.63 11.99 14.17
2 8.72 8.72 13.08
2 10.9 8.72 15.26
2 8.72 10.9 15.26
2 10.9 10.9 13.08
1 9.81 9.81 14.17
1 11.99 9.81 16.35
1 9.81 11.99 16.35
1 11.99 11.99 14.17
2 13.08 8.72 13.08
2 15.26 8.72 15.26
2 13.08 10.9 15.26
2 15.26 10.9 13.08
1 14.17 9.81 14.17
1 16.35 9.81 16.35
1 14.17 11.99 16.35
1 16.35 11.99 14.17
2 0 13.08 13.08
2 2.18 13.08 15.26
2 0 15.26 15.26
2 2.18 15.26 13.08
1 1.09 14.17 14.17
1 3.27 14.17 16.35
1 1.09 16.35 16.35
1 3.27 16.35 14.17
2 4.36 13.08 13.08
2 6.54 13.08 15.26
2 4.36 15.26 15.26
2 6.54 15.26 13.08
1 5.45 14.17 14.17
1 7.63 14.17 16.35
1 5.45 16.35 16.35
1 7.63 16.35 14.17
2 8.72 13.08 13.08
2 10.9 13.08 15.26
2 8.72 15.26 15.26
2 10.9 15.26 13.08
1 9.81 14.17 14.17
1 11.99 14.17 16.35
1 9.81 16.35 16.35
1 11.99 16.35 14.17
2 13.08 13.08 13.08
2 15.26 13.08 15.26
2 13.08 15.26 15.26
2 15.26 15.26 13.08
1 14.17 14.17 14.17
1 16.35 14.17 16.35
1 14.17 16.35 16.35
1 16.35 16.35 14.17
512
Atoms. Timestep: 1
2 17.4395 0.000434072 0.000589717
2 2.1794 17.4393 2.17941
2 0.000362475 2.18011 2.18055
2 2.18039 2.17977 17.4396
1 1.08954 1.09058 1.09098
1 3.2693 1.08967 3.26906
1 1.08954 3.26932 3.27073
1 3.26942 3.27083 1.08947
2 4.36058 0.000568471 17.4397
2 6.54018 8.8991e-06 2.1796
2 4.36055 2.17977 2.18064
2 6.5406 2.18056 17.4394
1 5.45087 1.09078 1.08971
1 7.62922 1.09039 3.27017
1 5.44949 3.26934 3.271
1 7.62962 3.27005 1.09042
2 8.72015 17.44 17.4398
2 10.9001 17.4398 2.1803
2 8.71952 2.18003 2.17941
2 10.9001 2.17956 0.000218501
1 9.8109 1.08966 1.09025
1 11.9899 1.08918 3.26928
1 9.81012 3.26918 3.26929
1 11.9899 3.26945 1.08946
2 13.0801 17.4394 0.000304281
2 15.2601 17.4399 2.17972
2 13.0805 2.17956 2.17987
2 15.2602 2.1805 0.000633287
1 14.17 1.09042 1.09039
1 16.3494 1.0896 3.26984
1 14.1706 3.27008 3.26956
1 16.3497 3.26958 1.09029
2 17.4395 4.35993 0.000291273
2 2.17941 4.35936 2.17992
2 0.000192026 6.53993 2.18023
2 2.17945 6.54026 17.4394
1 1.09058 5.45047 1.09086
1 3.27036 5.44967 3.2693
1 1.09055 7.63096 3.26966
1 3.26984 7.62917 1.08924
2 4.35972 4.36038 17.4394
2 6.53995 4.36037 2.18029
2 4.3598 6.54026 2.17955
2 6.53938 6.54052 0.000215667
1 5.45079 5.44943 1.09077
1 7.62995 5.4496 3.26958
1 5.45066 7.63026 3.27079
1 7.63006 7.63024 1.09087
2 8.72054 4.35963 0.000348529
2 10.9002 4.35999 2.18028
2 8.71995 6.54028 2.18046
2 10.8994 6.53951 17.4398
1 9.80953 5.45045 1.08913
1 11.9909 5.45021 3.2701
1 9.80917 7.62924 3.26958
1 11.9893 7.62921 1.08949
2 13.0803 4.35975 2.80547e-05
2 15.2598 4.3605 2.17979
2 13.0797 6.53948 2.18065
2 15.2606 6.53937 0.000352945
1 14.1708 5.45029 1.08984
1 16.3501 5.45014 3.26948
1 14.1701 7.63028 3.27061
1 16.3496 7.63046 1.08904
2 0.000487826 8.72038 0.000511403
2 2.1799 8.72017 2.17955
2 5.47821e-05 10.9005 2.17996
2 2.18033 10.8997 17.4397
1 1.09087 9.81021 1.09004
1 3.27041 9.81078 3.26936
1 1.09015 11.9894 3.26955
1 3.27049 11.9891 1.09021
2 4.36053 8.71957 17.44
2 6.54027 8.7194 2.18062
2 4.3603 10.9004 2.1796
2 6.53936 10.9 0.00052194
1 5.45002 9.81069 1.08964
1 7.62957 9.80907 3.26972
1 5.45009 11.9904 3.27049
1 7.62932 11.9904 1.08994
2 8.71957 8.71988 0.000235957
2 10.8995 8.72049 2.1796
2 8.71948 10.8997 2.17984
2 10.9005 10.8998 0.000462339
1 9.80906 9.8109 1.08949
1 11.9906 9.80977 3.27007
1 9.81094 11.9902 3.27025
1 11.9898 11.9894 1.08909
2 13.0802 8.71942 17.4393
2 15.2597 8.72025 2.17937
2 13.0799 10.8999 2.18032
2 15.26 10.9004 17.4399
1 14.1698 9.81063 1.08953
1 16.3494 9.81005 3.2704
1 14.1691 11.9891 3.2707
1 16.35 11.9901 1.08916
2 17.44 13.0801 17.4394
2 2.1796 13.0794 2.18032
2 0.000383937 15.2603 2.18016
2 2.18013 15.2596 17.4399
1 1.08924 14.1691 1.08946
1 3.2704 14.1705 3.27098
1 1.08983 16.3496 3.26991
1 3.27053 16.3509 1.09099
2 4.3594 13.0803 0.000304267
2 6.53989 13.0805 2.17938
2 4.3598 15.26 2.18035
2 6.53953 15.2605 17.4395
1 5.45037 14.1709 1.08913
1 7.62967 14.1705 3.27064
1 5.44984 16.3499 3.27061
1 7.63013 16.3509 1.09056
2 8.7205 13.0795 17.44
2 10.9002 13.0796 2.17953
2 8.72007 15.2602 2.1805
2 10.9006 15.2597 17.4398
1 9.81033 14.1691 1.08931
1 11.9899 14.1702 3.27025
1 9.80976 16.3502 3.26973
1 11.9899 16.3498 1.08911
2 13.0806 13.0801 17.4395
2 15.2601 13.0794 2.18043
2 13.0798 15.2603 2.18055
2 15.2605 15.2603 17.4397
1 14.1692 14.1702 1.08989
1 16.3496 14.1692 3.2696
1 14.171 16.3507 3.26995
1 16.3493 16.3501 1.08987
2 17.4396 1.23651e-05 4.35974
2 2.18011 17.4396 6.53967
2 17.4394 2.18033 6.54023
2 2.17973 2.17959 4.36015
1 1.08953 1.09092 5.44946
1 3.26975 1.08964 7.63021
1 1.08903 3.2701 7.63055
1 3.26934 3.27036 5.44944
2 4.36057 17.4394 4.35986
2 6.53985 17.4397 6.53966
2 4.35982 2.17988 6.54064
2 6.54012 2.18047 4.36031
1 5.45039 1.08998 5.45033
1 7.62952 1.09083 7.63019
1 5.45094 3.27061 7.63029
1 7.6303 3.27095 5.44971
2 8.72005 17.4394 4.36045
2 10.9 0.000254318 6.53986
2 8.72049 2.18032 6.54047
2 10.8999 2.1798 4.35962
1 9.80967 1.08969 5.44914
1 11.9895 1.08904 7.62976
1 9.81095 3.27028 7.62916
1 11.99 3.26947 5.44973
2 13.0795 3.28588e-05 4.35948
2 15.2599 17.4394 6.54033
2 13.0799 2.18042 6.53934
2 15.2595 2.17985 4.36018
1 14.1691 1.08908 5.44965
1 16.3498 1.08908 7.6298
1 14.1692 3.27082 7.63009
1 16.3493 3.26939 5.45095
2 17.4398 4.3606 4.36046
2 2.18062 4.35993 6.54027
2 0.000151692 6.53955 6.54063
2 2.18029 6.54059 4.36001
1 1.09031 5.44931 5.44965
1 3.27094 5.44981 7.62996
1 1.08965 7.63023 7.6291
1 3.27051 7.62933 5.45085
2 4.35992 4.35983 4.36061
2 6.53963 4.35946 6.53975
2 4.35994 6.53979 6.53961
2 6.54042 6.54018 4.36003
1 5.44965 5.45 5.4496
1 7.63073 5.45091 7.62942
1 5.45032 7.63065 7.62949
1 7.62959 7.62952 5.44939
2 8.71936 4.36028 4.36058
2 10.9002 4.36033 6.54054
2 8.71947 6.53993 6.53972
2 10.9006 6.54018 4.35964
1 9.80919 5.45001 5.44951
1 11.9908 5.45086 7.63025
1 9.81048 7.62959 7.62982
1 11.9901 7.6306 5.45085
2 13.0806 4.36007 4.35955
2 15.2606 4.35958 6.54049
2 13.0805 6.53965 6.54025
2 15.2599 6.54003 4.35956
1 14.1707 5.44956 5.45085
1 16.3495 5.45017 7.63034
1 14.1692 7.62951 7.63084
1 16.3509 7.62901 5.45055
2 0.000332225 8.72016 4.36017
2 2.18049 8.71965 6.54011
2 0.000650843 10.8998 6.53948
2 2.18029 10.9004 4.36055
1 1.09084 9.80916 5.45031
1 3.27059 9.81003 7.63046
1 1.09092 11.9908 7.63089
1 3.27075 11.9905 5.44923
2 4.36032 8.71978 4.36023
2 6.5399 8.71943 6.54039
2 4.35982 10.8997 6.53977
2 6.54016 10.9002 4.35969
1 5.44944 9.81031 5.44969
1 7.63088 9.81092 7.63008
1 5.45023 11.9909 7.62971
1 7.62902 11.9902 5.45047
2 8.72062 8.7201 4.36057
2 10.8996 8.72011 6.5402
2 8.71936 10.8999 6.54064
2 10.8996 10.9 4.36
1 9.81062 9.80992 5.45054
1 11.9908 9.8097 7.63084
1 9.80977 11.99 7.63018
1 11.9894 11.9895 5.44959
2 13.08 8.71948 4.35982
2 15.2601 8.71942 6.54054
2 13.0796 10.9003 6.53968
2 15.2601 10.9 4.35952
1 14.1695 9.809 5.44985
1 16.35 9.80991 7.62907
1 14.1698 11.9906 7.6297
1 16.3491 11.9894 5.44969
2 3.08527e-05 13.0798 4.35997
2 2.17957 13.0806 6.53952
2 0.000102297 15.2601 6.5396
2 2.17979 15.2595 4.36047
1 1.0894 14.1707 5.45095
1 3.26944 14.1705 7.62941
1 1.08928 16.3504 7.62928
1 3.26997 16.3496 5.44994
2 4.36028 13.0803 4.3604
2 6.53955 13.0801 6.53938
2 4.35978 15.2596 6.54042
2 6.53937 15.2604 4.36011
1 5.45039 14.1706 5.44941
1 7.63077 14.1696 7.63062
1 5.44957 16.3493 7.6305
1 7.62968 16.3491 5.44931
2 8.72025 13.0803 4.36042
2 10.8995 13.0804 6.53988
2 8.71942 15.2595 6.54055
2 10.9 15.2602 4.35961
1 9.80975 14.1708 5.44918
1 11.9908 14.1705 7.62908
1 9.81019 16.3507 7.62932
1 11.99 16.349 5.44987
2 13.0806 13.0802 4.36037
2 15.2601 13.0804 6.54059
2 13.0799 15.2595 6.53965
2 15.26 15.2598 4.36034
1 14.1704 14.1706 5.44977
1 16.349 14.17 7.62906
1 14.1699 16.3507 7.62984
1 16.3506 16.3495 5.45067
2 0.000540978 17.4396 8.71994
2 2.1806 0.000463358 10.9002
2 17.4396 2.17976 10.9001
2 2.18037 2.17998 8.72019
1 1.08982 1.08901 9.81018
1 3.27003 1.09042 11.9902
1 1.08968 3.27086 11.9894
1 3.26947 3.26959 9.80992
2 4.36063 9.12448e-05 8.71951
2 6.54006 17.4396 10.9
2 4.3604 2.18023 10.8998
2 6.54033 2.18028 8.71935
1 5.45083 1.09062 9.80965
1 7.63072 1.08979 11.9904
1 5.44975 3.2698 11.9894
1 7.62957 3.27031 9.81096
2 8.72053 17.4394 8.71967
2 10.9001 17.4398 10.9007
2 8.72006 2.17964 10.9005
2 10.8998 2.17987 8.71945
1 9.80989 1.08911 9.80955
1 11.9905 1.09022 11.9902
1 9.80902 3.26995 11.9907
1 11.9891 3.26987 9.80929
2 13.0805 17.4398 8.71942
2 15.26 1.73975e-05 10.8998
2 13.08 2.17966 10.8995
2 15.2599 2.18037 8.72043
1 14.171 1.08971 9.80988
1 16.35 1.09018 11.9898
1 14.1696 3.26953 11.9903
1 16.3509 3.26899 9.81057
2 17.4396 4.36009 8.71963
2 2.18061 4.35957 10.8996
2 17.4397 6.53972 10.8999
2 2.1799 6.5399 8.72034
1 1.08922 5.44929 9.81075
1 3.26993 5.4504 11.9903
1 1.0907 7.63056 11.9902
1 3.26945 7.63026 9.81065
2 4.3598 4.35942 8.71974
2 6.53949 4.36014 10.9005
2 4.35958 6.54063 10.8997
2 6.53946 6.54007 8.71994
1 5.44978 5.44902 9.8097
1 7.63053 5.45076 11.9897
1 5.44928 7.63092 11.9899
1 7.63055 7.63098 9.81028
2 8.71966 4.3601 8.71974
2 10.9003 4.35985 10.8998
2 8.72015 6.53983 10.8996
2 10.9001 6.54039 8.71967
1 9.80908 5.44987 9.80969
1 11.9906 5.44997 11.9899
1 9.80919 7.6309 11.9902
1 11.991 7.62905 9.8105
2 13.08 4.35949 8.72037
2 15.2603 4.35965 10.9
2 13.0796 6.53987 10.8996
2 15.2602 6.54047 8.7202
1 14.1702 5.44975 9.81061
1 16.3499 5.45013 11.9895
1 14.1699 7.62938 11.9904
1 16.3505 7.6308 9.80939
2 17.44 8.71938 8.71964
2 2.17942 8.72061 10.8998
2 17.4396 10.9 10.9001
2 2.17976 10.9 8.71977
1 1.09048 9.81073 9.80941
1 3.27057 9.80952 11.9896
1 1.08978 11.9893 11.9909
1 3.2691 11.9908 9.81046
2 4.35952 8.71941 8.71974
2 6.53996 8.71985 10.8997
2 4.36016 10.8994 10.9
2 6.53935 10.9003 8.71984
1 5.45008 9.80998 9.80983
1 7.63033 9.81088 11.9901
1 5.45079 11.9908 11.9903
1 7.63065 11.9904 9.80976
2 8.72026 8.72056 8.71998
2 10.9 8.72032 10.9007
2 8.71989 10.8995 10.9
2 10.8994 10.9006 8.71985
1 9.80961 9.80972 9.81089
1 11.991 9.81097 11.9896
1 9.80906 11.9894 11.9899
1 11.9897 11.9894 9.81082
2 13.0797 8.71997 8.71989
2 15.2605 8.7199 10.9001
2 13.0802 10.9 10.9003
2 15.2606 10.9003 8.72064
1 14.1707 9.8096 9.80938
1 16.3508 9.80903 11.9909
1 14.1708 11.9909 11.9902
1 16.3509 11.99 9.8103
2 17.4395 13.0805 8.72035
2 2.18018 13.0799 10.8994
2 17.4394 15.2598 10.9006
2 2.18061 15.2594 8.72015
1 1.08947 14.1702 9.8106
1 3.27083 14.171 11.9908
1 1.09072 16.3508 11.9909
1 3.26999 16.349 9.80928
2 4.35996 13.0796 8.72013
2 6.53954 13.0805 10.9001
2 4.3597 15.2594 10.8996
2 6.53944 15.2605 8.72021
1 5.45009 14.1707 9.81065
1 7.63096 14.1694 11.9892
1 5.45048 16.3491 11.9894
1 7.62905 16.3505 9.80899
2 8.71968 13.0796 8.71994
2 10.8999 13.0798 10.9005
2 8.72043 15.2606 10.9006
2 10.8996 15.26 8.72045
1 9.80969 14.1699 9.80919
1 11.9896 14.1708 11.9907
1 9.80928 16.3506 11.989
1 11.9907 16.3496 9.81035
2 13.0798 13.08 8.72053
2 15.2606 13.0798 10.8994
2 13.0802 15.2602 10.9004
2 15.2598 15.2602 8.72048
1 14.1697 14.1698 9.80903
1 16.3508 14.1706 11.9906
1 14.1701 16.3507 11.9903
1 16.3493 16.3503 9.80999
2 17.4399 17.4394 13.0801
2 2.18047 17.4397 15.2596
2 0.000260276 2.18065 15.2601
2 2.18023 2.1803 13.0804
1 1.09012 1.09041 14.1696
1 3.26969 1.09033 16.35
1 1.09072 3.27068 16.3507
1 3.27077 3.26977 14.1707
2 4.35945 0.000428438 13.0797
2 6.54002 0.000461148 15.26
2 4.36027 2.18046 15.2604
2 6.53965 2.18049 13.0797
1 5.44949 1.08913 14.1697
1 7.62964 1.09095 16.3501
1 5.44978 3.27016 16.3503
1 7.62912 3.2709 14.1709
2 8.72057 0.000467034 13.0799
2 10.8998 17.4397 15.2594
2 8.72004 2.17967 15.2602
2 10.9005 2.18018 13.0794
1 9.81074 1.09059 14.1702
1 11.99 1.08956 16.3506
1 9.81023 3.27089 16.3495
1 11.9905 3.26984 14.1695
2 13.0801 0.000590158 13.0797
2 15.2595 0.000534631 15.2602
2 13.0798 2.1805 15.2595
2 15.2598 2.17942 13.0806
1 14.1707 1.09095 14.169
1 16.3503 1.09 16.3494
1 14.1695 3.27086 16.3494
1 16.3492 3.2704 14.1698
2 17.4394 4.35943 13.0797
2 2.17963 4.35998 15.2603
2 17.4399 6.53935 15.2603
2 2.1798 6.54058 13.0803
1 1.08957 5.4499 14.1703
1 3.27005 5.45009 16.3491
1 1.08983 7.62937 16.3508
1 3.2704 7.6308 14.1704
2 4.36021 4.35993 13.0797
2 6.5396 4.36058 15.2598
2 4.35994 6.54005 15.2599
2 6.54047 6.53939 13.0796
1 5.45066 5.4495 14.1705
1 7.63 5.45045 16.3504
1 5.45061 7.63025 16.3503
1 7.62981 7.62924 14.1704
2 8.71944 4.35973 13.0795
2 10.9 4.35944 15.2602
2 8.7199 6.53991 15.2597
2 10.9007 6.53956 13.08
1 9.81072 5.45082 14.171
1 11.9906 5.4495 16.3491
1 9.81069 7.63032 16.3491
1 11.9893 7.62928 14.1709
2 13.0795 4.3598 13.0798
2 15.2594 4.35939 15.2605
2 13.0803 6.5402 15.2594
2 15.2595 6.5401 13.0803
1 14.1705 5.45033 14.1697
1 16.3492 5.4499 16.3499
1 14.171 7.6302 16.3491
1 16.3497 7.62931 14.1691
2 0.000496251 8.71936 13.0794
2 2.18056 8.71941 15.2602
2 0.000297709 10.8998 15.2598
2 2.18048 10.8998 13.0798
1 1.08973 9.80989 14.1704
1 3.27077 9.80926 16.3493
1 1.09013 11.9895 16.3508
1 3.26974 11.9897 14.1698
2 4.35967 8.72041 13.0802
2 6.54025 8.7195 15.2601
2 4.35994 10.9003 15.26
2 6.54033 10.9002 13.0802
1 5.45072 9.80984 14.1705
1 7.62965 9.80928 16.3493
1 5.44959 11.9908 16.3505
1 7.6297 11.9904 14.1691
2 8.71971 8.71951 13.0797
2 10.9003 8.71964 15.2604
2 8.72002 10.8998 15.2604
2 10.8997 10.8993 13.0795
1 9.8106 9.81005 14.17
1 11.9892 9.81087 16.3496
1 9.81022 11.9909 16.3509
1 11.9893 11.9893 14.1708
2 13.0805 8.72059 13.0798
2 15.2595 8.71999 15.2597
2 13.0806 10.9004 15.2595
2 15.2598 10.8999 13.0803
1 14.1702 9.80905 14.1701
1 16.349 9.80955 16.35
1 14.1705 11.9902 16.3493
1 16.3496 11.9909 14.1699
2 17.4394 13.0802 13.0806
2 2.1796 13.0801 15.2602
2 9.43042e-05 15.2605 15.2604
2 2.17937 15.2603 13.0802
1 1.08992 14.1702 14.171
1 3.26988 14.1708 16.3495
1 1.0906 16.3509 16.3498
1 3.26901 16.3501 14.1697
2 4.36027 13.0794 13.0806
2 6.54022 13.0801 15.2602
2 4.35989 15.2602 15.2595
2 6.53978 15.2599 13.0796
1 5.45004 14.1693 14.1691
1 7.63098 14.17 16.3498
1 5.45066 16.35 16.3499
1 7.63012 16.3494 14.1706
2 8.72025 13.0807 13.0805
2 10.8999 13.0795 15.2596
2 8.72018 15.2604 15.2593
2 10.8995 15.2602 13.0795
1 9.81001 14.1708 14.1691
1 11.9893 14.1702 16.3509
1 9.81091 16.3506 16.3501
1 11.9894 16.3507 14.1701
2 13.0794 13.0805 13.0804
2 15.2604 13.0799 15.2601
2 13.0797 15.2601 15.2606
2 15.2597 15.2598 13.0804
1 14.1705 14.1709 14.1707
1 16.35 14.1691 16.349
1 14.1696 16.3504 16.3501
1 16.3502 16.3491 14.1709
512
Atoms. Timestep: 2
2 17.439 0.000868142 0.00117938
2 2.1788 17.4387 2.17881
2 0.000724853 2.18021 2.18109
2 2.18077 2.17955 17.4392
1 1.08908 1.09117 1.09195
1 3.2686 1.08934 3.26812
1 1.08908 3.26864 3.27147
1 3.26885 3.27167 1.08894
2 4.36116 0.00113693 17.4395
2 6.54037 1.78246e-05 2.1792
2 4.36111 2.17955 2.18127
2 6.54121 2.18112 17.4388
1 5.45173 1.09155 1.08942
1 7.62843 1.09077 3.27033
1 5.44898 3.26868 3.272
1 7.62924 3.27011 1.09084
2 8.7203 17.44 17.4397
2 10.9003 17.4395 2.18059
2 8.71904 2.18007 2.17883
2 10.9002 2.17912 0.000436953
1 9.81181 1.08932 1.0905
1 11.9899 1.08836 3.26855
1 9.81024 3.26836 3.26858
1 11.9897 3.26889 1.08893
2 13.0802 17.4389 0.000608553
2 15.2602 17.4397 2.17943
2 13.0811 2.17913 2.17974
2 15.2604 2.18101 0.00126646
1 14.1701 1.09085 1.09077
1 16.3489 1.08921 3.26969
1 14.1712 3.27016 3.26912
1 16.3495 3.26917 1.09057
2 17.4391 4.35985 0.000582569
2 2.17883 4.35871 2.17984
2 0.000384039 6.53987 2.18045
2 2.17891 6.54051 17.4388
1 1.09117 5.45094 1.09173
1 3.27072 5.44933 3.2686
1 1.09109 7.63192 3.26931
1 3.26969 7.62835 1.08848
2 4.35943 4.36075 17.4388
2 6.53989 4.36075 2.18059
2 4.35961 6.54051 2.1791
2 6.53877 6.54104 0.000431385
1 5.45158 5.44885 1.09154
1 7.6299 5.44919 3.26917
1 5.45131 7.63052 3.27158
1 7.63011 7.63049 1.09174
2 8.72108 4.35926 0.00069702
2 10.9005 4.35999 2.18056
2 8.71991 6.54057 2.18092
2 10.8987 6.53903 17.4395
1 9.80906 5.4509 1.08827
1 11.9918 5.45042 3.2702
1 9.80834 7.62847 3.26916
1 11.9886 7.62841 1.08899
2 13.0806 4.3595 5.60954e-05
2 15.2596 4.361 2.17958
2 13.0794 6.53896 2.1813
2 15.2611 6.53873 0.000705795
1 14.1715 5.45057 1.08968
1 16.3501 5.45027 3.26895
1 14.1703 7.63055 3.27121
1 16.3493 7.63093 1.08808
2 0.000975596 8.72077 0.00102274
2 2.1798 8.72033 2.1791
2 0.000109559 10.901 2.17992
2 2.18066 10.8995 17.4393
1 1.09174 9.81042 1.09008
1 3.27081 9.81157 3.26871
1 1.09029 11.9888 3.2691
1 3.27097 11.9882 1.09042
2 4.36106 8.71914 17.44
2 6.54054 8.71881 2.18124
2 4.3606 10.9008 2.1792
2 6.53871 10.9 0.00104377
1 5.45004 9.81138 1.08928
1 7.62914 9.80814 3.26944
1 5.45018 11.9907 3.27098
1 7.62865 11.9909 1.08988
2 8.71915 8.71975 0.000471855
2 10.8989 8.72098 2.17921
2 8.71895 10.8993 2.17967
2 10.9009 10.8996 0.000924603
1 9.80813 9.81181 1.08898
1 11.9912 9.80955 3.27015
1 9.81187 11.9904 3.2705
1 11.9896 11.9888 1.08818
2 13.0804 8.71884 17.4387
2 15.2593 8.7205 2.17874
2 13.0798 10.8998 2.18064
2 15.2599 10.9008 17.4398
1 14.1697 9.81126 1.08905
1 16.3489 9.8101 3.2708
1 14.1683 11.9882 3.27141
1 16.3501 11.9901 1.08832
2 17.4399 13.0802 17.4388
2 2.17921 13.0789 2.18065
2 0.000767777 15.2605 2.18033
2 2.18025 15.2592 17.4398
1 1.08848 14.1682 1.08892
1 3.2708 14.171 3.27195
1 1.08966 16.3492 3.26982
1 3.27107 16.3517 1.09198
2 4.3588 13.0806 0.000608498
2 6.53977 13.081 2.17877
2 4.3596 15.2599 2.1807
2 6.53907 15.2611 17.439
1 5.45073 14.1717 1.08827
1 7.62934 14.171 3.27127
1 5.44967 16.3498 3.27122
1 7.63027 16.3518 1.09111
2 8.72101 13.0791 17.4399
2 10.9005 13.0791 2.17906
2 8.72014 15.2604 2.181
2 10.9013 15.2595 17.4395
1 9.81067 14.1682 1.08862
1 11.9898 14.1705 3.27049
1 9.80952 16.3504 3.26945
1 11.9897 16.3496 1.08822
2 13.0812 13.0802 17.439
2 15.2602 13.0788 2.18087
2 13.0796 15.2606 2.18111
2 15.261 15.2606 17.4393
1 14.1685 14.1705 1.08978
1 16.3492 14.1684 3.2692
1 14.172 16.3514 3.2699
1 16.3486 16.3503 1.08974
2 17.4392 2.47188e-05 4.35949
2 2.18022 17.4393 6.53934
2 17.4388 2.18066 6.54046
2 2.17946 2.17919 4.3603
1 1.08906 1.09185 5.44892
1 3.2695 1.08927 7.63042
1 1.08806 3.2702 7.6311
1 3.26868 3.27072 5.44889
2 4.36114 17.4388 4.35972
2 6.5397 17.4393 6.53932
2 4.35965 2.17977 6.54128
2 6.54024 2.18095 4.36063
1 5.45079 1.08996 5.45066
1 7.62905 1.09166 7.63038
1 5.45188 3.27122 7.63058
1 7.63061 3.27191 5.44941
2 8.72011 17.4389 4.3609
2 10.8999 0.000508567 6.53972
2 8.72097 2.18065 6.54094
2 10.8999 2.17961 4.35924
1 9.80934 1.08937 5.44828
1 11.9891 1.08809 7.62951
1 9.8119 3.27055 7.62831
1 11.9899 3.26893 5.44945
2 13.0791 6.56553e-05 4.35896
2 15.2598 17.4389 6.54066
2 13.0798 2.18083 6.53868
2 15.259 2.1797 4.36037
1 14.1683 1.08816 5.44929
1 16.3496 1.08817 7.6296
1 14.1684 3.27163 7.63017
1 16.3485 3.26879 5.45189
2 17.4395 4.3612 4.36092
2 2.18123 4.35985 6.54054
2 0.000303401 6.53911 6.54125
2 2.18059 6.54117 4.36003
1 1.09062 5.44863 5.4493
1 3.27187 5.44962 7.62993
1 1.08931 7.63046 7.6282
1 3.27101 7.62866 5.4517
2 4.35983 4.35966 4.36123
2 6.53925 4.35893 6.53949
2 4.35988 6.53958 6.53923
2 6.54084 6.54035 4.36006
1 5.4493 5.45001 5.44921
1 7.63147 5.45182 7.62884
1 5.45063 7.63129 7.62897
1 7.62917 7.62905 5.44878
2 8.71871 4.36056 4.36115
2 10.9005 4.36066 6.54108
2 8.71894 6.53985 6.53944
2 10.9011 6.54036 4.35927
1 9.80839 5.45001 5.44901
1 11.9916 5.45171 7.6305
1 9.81096 7.62917 7.62964
1 11.9902 7.6312 5.4517
2 13.0812 4.36014 4.35911
2 15.2611 4.35915 6.54097
2 13.0811 6.53929 6.54051
2 15.2597 6.54007 4.35912
1 14.1714 5.44913 5.45169
1 16.349 5.45034 7.63068
1 14.1684 7.62903 7.63169
1 16.3518 7.62802 5.45109
2 0.000664435 8.72032 4.36034
2 2.18097 8.7193 6.54022
2 0.00130166 10.8996 6.53896
2 2.18059 10.9009 4.36111
1 1.09168 9.80831 5.45063
1 3.27117 9.81006 7.63093
1 1.09185 11.9916 7.63177
1 3.2715 11.9909 5.44845
2 4.36063 8.71955 4.36046
2 6.53981 8.71886 6.54078
2 4.35964 10.8994 6.53955
2 6.54033 10.9005 4.35937
1 5.44889 9.81062 5.44938
1 7.63176 9.81183 7.63016
1 5.45046 11.9918 7.62943
1 7.62803 11.9903 5.45093
2 8.72124 8.7202 4.36113
2 10.8991 8.72022 6.5404
2 8.71871 10.8998 6.54128
2 10.8993 10.9 4.36
1 9.81123 9.80984 5.45107
1 11.9916 9.8094 7.63167
1 9.80955 11.9899 7.63035
1 11.9888 11.989 5.44918
2 13.0801 8.71897 4.35964
2 15.2602 8.71884 6.54107
2 13.0792 10.9007 6.53935
2 15.2603 10.9 4.35903
1 14.1689 9.808 5.44969
1 16.35 9.80983 7.62814
1 14.1696 11.9911 7.62941
1 16.3483 11.9888 5.44939
2 6.16912e-05 13.0796 4.35994
2 2.17913 13.0812 6.53903
2 0.000204544 15.2602 6.53919
2 2.17959 15.259 4.36094
1 1.08879 14.1714 5.4519
1 3.26888 14.171 7.62883
1 1.08855 16.3509 7.62857
1 3.26993 16.3491 5.44988
2 4.36055 13.0806 4.3608
2 6.5391 13.0801 6.53876
2 4.35955 15.2592 6.54085
2 6.53873 15.2607 4.36021
1 5.45078 14.1712 5.44882
1 7.63153 14.1693 7.63125
1 5.44914 16.3485 7.63099
1 7.62935 16.3481 5.44862
2 8.7205 13.0806 4.36084
2 10.8989 13.0808 6.53977
2 8.71884 15.2591 6.5411
2 10.9 15.2605 4.35922
1 9.80949 14.1715 5.44837
1 11.9916 14.171 7.62817
1 9.81037 16.3514 7.62864
1 11.9901 16.348 5.44973
2 13.0811 13.0805 4.36074
2 15.2603 13.0808 6.54118
2 13.0799 15.259 6.53929
2 15.2599 15.2597 4.36068
1 14.1708 14.1713 5.44955
1 16.348 14.1699 7.62812
1 14.1697 16.3514 7.62967
1 16.3512 16.349 5.45134
2 0.00108187 17.4392 8.71989
2 2.18119 0.000926642 10.9004
2 17.4392 2.17952 10.9003
2 2.18075 2.17996 8.72038
1 1.08964 1.08802 9.81036
1 3.27006 1.09084 11.9904
1 1.08935 3.27172 11.9888
1 3.26894 3.26919 9.80983
2 4.36127 0.000182466 8.71901
2 6.54012 17.4393 10.8999
2 4.3608 2.18046 10.8996
2 6.54066 2.18057 8.71871
1 5.45166 1.09124 9.8093
1 7.63143 1.08958 11.9909
1 5.4495 3.26959 11.9888
1 7.62913 3.27061 9.81192
2 8.72105 17.4388 8.71934
2 10.9002 17.4396 10.9013
2 8.72013 2.17929 10.9011
2 10.8996 2.17975 8.7189
1 9.80978 1.08822 9.8091
1 11.991 1.09043 11.9904
1 9.80804 3.26991 11.9914
1 11.9882 3.26974 9.80858
2 13.081 17.4396 8.71884
2 15.26 3.48142e-05 10.8996
2 13.08 2.17932 10.899
2 15.2598 2.18074 8.72087
1 14.172 1.08942 9.80976
1 16.35 1.09037 11.9896
1 14.1693 3.26906 11.9907
1 16.3519 3.26798 9.81115
2 17.4392 4.36019 8.71926
2 2.18121 4.35913 10.8992
2 17.4393 6.53945 10.8999
2 2.1798 6.53979 8.72068
1 1.08845 5.44858 9.81149
1 3.26987 5.4508 11.9906
1 1.0914 7.63112 11.9903
1 3.26889 7.63051 9.8113
2 4.3596 4.35883 8.71948
2 6.53899 4.36027 10.901
2 4.35915 6.54126 10.8994