ITEM: TIMESTEP
0
ITEM: NUMBER OF ATOMS
550
ITEM: BOX BOUNDS pp pp pp
0.0000000000000000e+00 2.1800000000000001e+01
0.0000000000000000e+00 2.1800000000000001e+01
0.0000000000000000e+00 2.1800000000000001e+01
ITEM: ATOMS id type xs ys zs
1 2 0 0 0
2 2 0.1 0 0.1
3 2 0 0.1 0.1
4 2 0.1 0.1 0
5 1 0.05 0.05 0.05
9 2 0.2 0 0
11 2 0.2 0.1 0.1
13 1 0.25 0.05 0.05
10 2 0.3 0 0.1
12 2 0.3 0.1 0
17 2 0.4 0 0
19 2 0.4 0.1 0.1
18 2 0.5 0 0.1
20 2 0.5 0.1 0
21 1 0.45 0.05 0.05
25 2 0.6 0 0
26 2 0.7 0 0.1
27 2 0.6 0.1 0.1
28 2 0.7 0.1 0
29 1 0.65 0.05 0.05
33 2 0.8 0 0
35 2 0.8 0.1 0.1
37 1 0.85 0.05 0.05
34 2 0.9 0 0.1
36 2 0.9 0.1 0
41 2 0 0.2 0
42 2 0.1 0.2 0.1
45 1 0.05 0.25 0.05
8 1 0.15 0.15 0.05
49 2 0.2 0.2 0
53 1 0.25 0.25 0.05
16 1 0.35 0.15 0.05
50 2 0.3 0.2 0.1
57 2 0.4 0.2 0
24 1 0.55 0.15 0.05
58 2 0.5 0.2 0.1
61 1 0.45 0.25 0.05
65 2 0.6 0.2 0
66 2 0.7 0.2 0.1
69 1 0.65 0.25 0.05
32 1 0.75 0.15 0.05
73 2 0.8 0.2 0
77 1 0.85 0.25 0.05
40 1 0.95 0.15 0.05
74 2 0.9 0.2 0.1
43 2 0 0.3 0.1
44 2 0.1 0.3 0
81 2 0 0.4 0
82 2 0.1 0.4 0.1
48 1 0.15 0.35 0.05
51 2 0.2 0.3 0.1
89 2 0.2 0.4 0
52 2 0.3 0.3 0
56 1 0.35 0.35 0.05
59 2 0.4 0.3 0.1
90 2 0.3 0.4 0.1
97 2 0.4 0.4 0
60 2 0.5 0.3 0
64 1 0.55 0.35 0.05
98 2 0.5 0.4 0.1
67 2 0.6 0.3 0.1
68 2 0.7 0.3 0
105 2 0.6 0.4 0
106 2 0.7 0.4 0.1
72 1 0.75 0.35 0.05
75 2 0.8 0.3 0.1
113 2 0.8 0.4 0
76 2 0.9 0.3 0
80 1 0.95 0.35 0.05
114 2 0.9 0.4 0.1
83 2 0 0.5 0.1
84 2 0.1 0.5 0
85 1 0.05 0.45 0.05
88 1 0.15 0.55 0.05
91 2 0.2 0.5 0.1
93 1 0.25 0.45 0.05
92 2 0.3 0.5 0
96 1 0.35 0.55 0.05
99 2 0.4 0.5 0.1
100 2 0.5 0.5 0
101 1 0.45 0.45 0.05
104 1 0.55 0.55 0.05
107 2 0.6 0.5 0.1
108 2 0.7 0.5 0
109 1 0.65 0.45 0.05
112 1 0.75 0.55 0.05
115 2 0.8 0.5 0.1
117 1 0.85 0.45 0.05
116 2 0.9 0.5 0
120 1 0.95 0.55 0.05
121 2 0 0.6 0
122 2 0.1 0.6 0.1
123 2 0 0.7 0.1
124 2 0.1 0.7 0
125 1 0.05 0.65 0.05
129 2 0.2 0.6 0
131 2 0.2 0.7 0.1
133 1 0.25 0.65 0.05
130 2 0.3 0.6 0.1
132 2 0.3 0.7 0
137 2 0.4 0.6 0
139 2 0.4 0.7 0.1
138 2 0.5 0.6 0.1
140 2 0.5 0.7 0
141 1 0.45 0.65 0.05
145 2 0.6 0.6 0
146 2 0.7 0.6 0.1
147 2 0.6 0.7 0.1
148 2 0.7 0.7 0
149 1 0.65 0.65 0.05
153 2 0.8 0.6 0
155 2 0.8 0.7 0.1
157 1 0.85 0.65 0.05
154 2 0.9 0.6 0.1
156 2 0.9 0.7 0
161 2 0 0.8 0
162 2 0.1 0.8 0.1
165 1 0.05 0.85 0.05
128 1 0.15 0.75 0.05
169 2 0.2 0.8 0
173 1 0.25 0.85 0.05
136 1 0.35 0.75 0.05
170 2 0.3 0.8 0.1
177 2 0.4 0.8 0
144 1 0.55 0.75 0.05
178 2 0.5 0.8 0.1
181 1 0.45 0.85 0.05
185 2 0.6 0.8 0
186 2 0.7 0.8 0.1
189 1 0.65 0.85 0.05
152 1 0.75 0.75 0.05
193 2 0.8 0.8 0
197 1 0.85 0.85 0.05
160 1 0.95 0.75 0.05
194 2 0.9 0.8 0.1
163 2 0 0.9 0.1
164 2 0.1 0.9 0
168 1 0.15 0.95 0.05
171 2 0.2 0.9 0.1
172 2 0.3 0.9 0
176 1 0.35 0.95 0.05
179 2 0.4 0.9 0.1
180 2 0.5 0.9 0
184 1 0.55 0.95 0.05
187 2 0.6 0.9 0.1
188 2 0.7 0.9 0
192 1 0.75 0.95 0.05
195 2 0.8 0.9 0.1
196 2 0.9 0.9 0
200 1 0.95 0.95 0.05
201 2 0 0 0.2
204 2 0.1 0.1 0.2
205 1 0.05 0.05 0.25
6 1 0.15 0.05 0.15
209 2 0.2 0 0.2
213 1 0.25 0.05 0.25
14 1 0.35 0.05 0.15
212 2 0.3 0.1 0.2
217 2 0.4 0 0.2
22 1 0.55 0.05 0.15
220 2 0.5 0.1 0.2
221 1 0.45 0.05 0.25
225 2 0.6 0 0.2
228 2 0.7 0.1 0.2
229 1 0.65 0.05 0.25
30 1 0.75 0.05 0.15
233 2 0.8 0 0.2
237 1 0.85 0.05 0.25
38 1 0.95 0.05 0.15
236 2 0.9 0.1 0.2
7 1 0.05 0.15 0.15
241 2 0 0.2 0.2
245 1 0.05 0.25 0.25
15 1 0.25 0.15 0.15
46 1 0.15 0.25 0.15
208 1 0.15 0.15 0.25
249 2 0.2 0.2 0.2
253 1 0.25 0.25 0.25
54 1 0.35 0.25 0.15
216 1 0.35 0.15 0.25
257 2 0.4 0.2 0.2
23 1 0.45 0.15 0.15
62 1 0.55 0.25 0.15
224 1 0.55 0.15 0.25
261 1 0.45 0.25 0.25
31 1 0.65 0.15 0.15
265 2 0.6 0.2 0.2
269 1 0.65 0.25 0.25
39 1 0.85 0.15 0.15
70 1 0.75 0.25 0.15
232 1 0.75 0.15 0.25
273 2 0.8 0.2 0.2
277 1 0.85 0.25 0.25
78 1 0.95 0.25 0.15
240 1 0.95 0.15 0.25
47 1 0.05 0.35 0.15
244 2 0.1 0.3 0.2
281 2 0 0.4 0.2
55 1 0.25 0.35 0.15
248 1 0.15 0.35 0.25
289 2 0.2 0.4 0.2
252 2 0.3 0.3 0.2
256 1 0.35 0.35 0.25
297 2 0.4 0.4 0.2
63 1 0.45 0.35 0.15
260 2 0.5 0.3 0.2
264 1 0.55 0.35 0.25
71 1 0.65 0.35 0.15
268 2 0.7 0.3 0.2
305 2 0.6 0.4 0.2
79 1 0.85 0.35 0.15
272 1 0.75 0.35 0.25
313 2 0.8 0.4 0.2
276 2 0.9 0.3 0.2
280 1 0.95 0.35 0.25
87 1 0.05 0.55 0.15
284 2 0.1 0.5 0.2
285 1 0.05 0.45 0.25
86 1 0.15 0.45 0.15
95 1 0.25 0.55 0.15
288 1 0.15 0.55 0.25
293 1 0.25 0.45 0.25
94 1 0.35 0.45 0.15
292 2 0.3 0.5 0.2
296 1 0.35 0.55 0.25
102 1 0.55 0.45 0.15
103 1 0.45 0.55 0.15
300 2 0.5 0.5 0.2
301 1 0.45 0.45 0.25
304 1 0.55 0.55 0.25
111 1 0.65 0.55 0.15
308 2 0.7 0.5 0.2
309 1 0.65 0.45 0.25
110 1 0.75 0.45 0.15
119 1 0.85 0.55 0.15
312 1 0.75 0.55 0.25
317 1 0.85 0.45 0.25
118 1 0.95 0.45 0.15
316 2 0.9 0.5 0.2
320 1 0.95 0.55 0.25
321 2 0 0.6 0.2
324 2 0.1 0.7 0.2
325 1 0.05 0.65 0.25
126 1 0.15 0.65 0.15
329 2 0.2 0.6 0.2
333 1 0.25 0.65 0.25
134 1 0.35 0.65 0.15
332 2 0.3 0.7 0.2
337 2 0.4 0.6 0.2
142 1 0.55 0.65 0.15
340 2 0.5 0.7 0.2
341 1 0.45 0.65 0.25
345 2 0.6 0.6 0.2
348 2 0.7 0.7 0.2
349 1 0.65 0.65 0.25
150 1 0.75 0.65 0.15
353 2 0.8 0.6 0.2
357 1 0.85 0.65 0.25
158 1 0.95 0.65 0.15
356 2 0.9 0.7 0.2
127 1 0.05 0.75 0.15
361 2 0 0.8 0.2
365 1 0.05 0.85 0.25
135 1 0.25 0.75 0.15
166 1 0.15 0.85 0.15
328 1 0.15 0.75 0.25
369 2 0.2 0.8 0.2
373 1 0.25 0.85 0.25
174 1 0.35 0.85 0.15
336 1 0.35 0.75 0.25
377 2 0.4 0.8 0.2
143 1 0.45 0.75 0.15
182 1 0.55 0.85 0.15
344 1 0.55 0.75 0.25
381 1 0.45 0.85 0.25
151 1 0.65 0.75 0.15
385 2 0.6 0.8 0.2
389 1 0.65 0.85 0.25
159 1 0.85 0.75 0.15
190 1 0.75 0.85 0.15
352 1 0.75 0.75 0.25
393 2 0.8 0.8 0.2
397 1 0.85 0.85 0.25
198 1 0.95 0.85 0.15
360 1 0.95 0.75 0.25
167 1 0.05 0.95 0.15
364 2 0.1 0.9 0.2
175 1 0.25 0.95 0.15
368 1 0.15 0.95 0.25
372 2 0.3 0.9 0.2
376 1 0.35 0.95 0.25
183 1 0.45 0.95 0.15
380 2 0.5 0.9 0.2
384 1 0.55 0.95 0.25
191 1 0.65 0.95 0.15
388 2 0.7 0.9 0.2
199 1 0.85 0.95 0.15
392 1 0.75 0.95 0.25
396 2 0.9 0.9 0.2
400 1 0.95 0.95 0.25
202 2 0.1 0 0.3
203 2 0 0.1 0.3
401 2 0 0 0.4
404 2 0.1 0.1 0.4
206 1 0.15 0.05 0.35
211 2 0.2 0.1 0.3
407 2 0.2 0 0.4
210 2 0.3 0 0.3
214 1 0.35 0.05 0.35
219 2 0.4 0.1 0.3
410 2 0.3 0.1 0.4
413 2 0.4 0 0.4
218 2 0.5 0 0.3
222 1 0.55 0.05 0.35
416 2 0.5 0.1 0.4
226 2 0.7 0 0.3
227 2 0.6 0.1 0.3
419 2 0.6 0 0.4
422 2 0.7 0.1 0.4
230 1 0.75 0.05 0.35
235 2 0.8 0.1 0.3
425 2 0.8 0 0.4
234 2 0.9 0 0.3
238 1 0.95 0.05 0.35
428 2 0.9 0.1 0.4
207 1 0.05 0.15 0.35
242 2 0.1 0.2 0.3
431 2 0 0.2 0.4
215 1 0.25 0.15 0.35
246 1 0.15 0.25 0.35
437 2 0.2 0.2 0.4
250 2 0.3 0.2 0.3
254 1 0.35 0.25 0.35
443 2 0.4 0.2 0.4
223 1 0.45 0.15 0.35
258 2 0.5 0.2 0.3
262 1 0.55 0.25 0.35
231 1 0.65 0.15 0.35
266 2 0.7 0.2 0.3
449 2 0.6 0.2 0.4
239 1 0.85 0.15 0.35
270 1 0.75 0.25 0.35
455 2 0.8 0.2 0.4
274 2 0.9 0.2 0.3
278 1 0.95 0.25 0.35
243 2 0 0.3 0.3
247 1 0.05 0.35 0.35
282 2 0.1 0.4 0.3
434 2 0.1 0.3 0.4
461 2 0 0.4 0.4
251 2 0.2 0.3 0.3
255 1 0.25 0.35 0.35
467 2 0.2 0.4 0.4
259 2 0.4 0.3 0.3
290 2 0.3 0.4 0.3
440 2 0.3 0.3 0.4
473 2 0.4 0.4 0.4
263 1 0.45 0.35 0.35
298 2 0.5 0.4 0.3
446 2 0.5 0.3 0.4
267 2 0.6 0.3 0.3
271 1 0.65 0.35 0.35
306 2 0.7 0.4 0.3
452 2 0.7 0.3 0.4
479 2 0.6 0.4 0.4
275 2 0.8 0.3 0.3
279 1 0.85 0.35 0.35
485 2 0.8 0.4 0.4
314 2 0.9 0.4 0.3
458 2 0.9 0.3 0.4
283 2 0 0.5 0.3
287 1 0.05 0.55 0.35
464 2 0.1 0.5 0.4
286 1 0.15 0.45 0.35
291 2 0.2 0.5 0.3
295 1 0.25 0.55 0.35
294 1 0.35 0.45 0.35
299 2 0.4 0.5 0.3
470 2 0.3 0.5 0.4
302 1 0.55 0.45 0.35
303 1 0.45 0.55 0.35
476 2 0.5 0.5 0.4
307 2 0.6 0.5 0.3
311 1 0.65 0.55 0.35
482 2 0.7 0.5 0.4
310 1 0.75 0.45 0.35
315 2 0.8 0.5 0.3
319 1 0.85 0.55 0.35
318 1 0.95 0.45 0.35
488 2 0.9 0.5 0.4
322 2 0.1 0.6 0.3
323 2 0 0.7 0.3
491 2 0 0.6 0.4
494 2 0.1 0.7 0.4
326 1 0.15 0.65 0.35
331 2 0.2 0.7 0.3
497 2 0.2 0.6 0.4
330 2 0.3 0.6 0.3
334 1 0.35 0.65 0.35
339 2 0.4 0.7 0.3
500 2 0.3 0.7 0.4
503 2 0.4 0.6 0.4
338 2 0.5 0.6 0.3
342 1 0.55 0.65 0.35
506 2 0.5 0.7 0.4
346 2 0.7 0.6 0.3
347 2 0.6 0.7 0.3
509 2 0.6 0.6 0.4
512 2 0.7 0.7 0.4
350 1 0.75 0.65 0.35
355 2 0.8 0.7 0.3
515 2 0.8 0.6 0.4
354 2 0.9 0.6 0.3
358 1 0.95 0.65 0.35
518 2 0.9 0.7 0.4
327 1 0.05 0.75 0.35
362 2 0.1 0.8 0.3
521 2 0 0.8 0.4
335 1 0.25 0.75 0.35
366 1 0.15 0.85 0.35
527 2 0.2 0.8 0.4
370 2 0.3 0.8 0.3
374 1 0.35 0.85 0.35
533 2 0.4 0.8 0.4
343 1 0.45 0.75 0.35
378 2 0.5 0.8 0.3
382 1 0.55 0.85 0.35
351 1 0.65 0.75 0.35
386 2 0.7 0.8 0.3
539 2 0.6 0.8 0.4
359 1 0.85 0.75 0.35
390 1 0.75 0.85 0.35
545 2 0.8 0.8 0.4
394 2 0.9 0.8 0.3
398 1 0.95 0.85 0.35
363 2 0 0.9 0.3
367 1 0.05 0.95 0.35
524 2 0.1 0.9 0.4
371 2 0.2 0.9 0.3
375 1 0.25 0.95 0.35
379 2 0.4 0.9 0.3
530 2 0.3 0.9 0.4
383 1 0.45 0.95 0.35
536 2 0.5 0.9 0.4
387 2 0.6 0.9 0.3
391 1 0.65 0.95 0.35
542 2 0.7 0.9 0.4
395 2 0.8 0.9 0.3
399 1 0.85 0.95 0.35
548 2 0.9 0.9 0.4
402 2 0.1 0 0.5
403 2 0 0.1 0.5
405 1 0.05 0.05 0.45
409 2 0.2 0.1 0.5
411 1 0.25 0.05 0.45
408 2 0.3 0 0.5
415 2 0.4 0.1 0.5
414 2 0.5 0 0.5
417 1 0.45 0.05 0.45
420 2 0.7 0 0.5
421 2 0.6 0.1 0.5
423 1 0.65 0.05 0.45
427 2 0.8 0.1 0.5
429 1 0.85 0.05 0.45
426 2 0.9 0 0.5
432 2 0.1 0.2 0.5
435 1 0.05 0.25 0.45
406 1 0.15 0.15 0.45
441 1 0.25 0.25 0.45
412 1 0.35 0.15 0.45
438 2 0.3 0.2 0.5
418 1 0.55 0.15 0.45
444 2 0.5 0.2 0.5
447 1 0.45 0.25 0.45
450 2 0.7 0.2 0.5
453 1 0.65 0.25 0.45
424 1 0.75 0.15 0.45
459 1 0.85 0.25 0.45
430 1 0.95 0.15 0.45
456 2 0.9 0.2 0.5
433 2 0 0.3 0.5
462 2 0.1 0.4 0.5
436 1 0.15 0.35 0.45
439 2 0.2 0.3 0.5
442 1 0.35 0.35 0.45
445 2 0.4 0.3 0.5
468 2 0.3 0.4 0.5
448 1 0.55 0.35 0.45
474 2 0.5 0.4 0.5
451 2 0.6 0.3 0.5
480 2 0.7 0.4 0.5
454 1 0.75 0.35 0.45
457 2 0.8 0.3 0.5
460 1 0.95 0.35 0.45
486 2 0.9 0.4 0.5
463 2 0 0.5 0.5
465 1 0.05 0.45 0.45
466 1 0.15 0.55 0.45
469 2 0.2 0.5 0.5
471 1 0.25 0.45 0.45
472 1 0.35 0.55 0.45
475 2 0.4 0.5 0.5
477 1 0.45 0.45 0.45
478 1 0.55 0.55 0.45
481 2 0.6 0.5 0.5
483 1 0.65 0.45 0.45
484 1 0.75 0.55 0.45
487 2 0.8 0.5 0.5
489 1 0.85 0.45 0.45
490 1 0.95 0.55 0.45
492 2 0.1 0.6 0.5
493 2 0 0.7 0.5
495 1 0.05 0.65 0.45
499 2 0.2 0.7 0.5
501 1 0.25 0.65 0.45
498 2 0.3 0.6 0.5
505 2 0.4 0.7 0.5
504 2 0.5 0.6 0.5
507 1 0.45 0.65 0.45
510 2 0.7 0.6 0.5
511 2 0.6 0.7 0.5
513 1 0.65 0.65 0.45
517 2 0.8 0.7 0.5
519 1 0.85 0.65 0.45
516 2 0.9 0.6 0.5
522 2 0.1 0.8 0.5
525 1 0.05 0.85 0.45
496 1 0.15 0.75 0.45
531 1 0.25 0.85 0.45
502 1 0.35 0.75 0.45
528 2 0.3 0.8 0.5
508 1 0.55 0.75 0.45
534 2 0.5 0.8 0.5
537 1 0.45 0.85 0.45
540 2 0.7 0.8 0.5
543 1 0.65 0.85 0.45
514 1 0.75 0.75 0.45
549 1 0.85 0.85 0.45
520 1 0.95 0.75 0.45
546 2 0.9 0.8 0.5
523 2 0 0.9 0.5
526 1 0.15 0.95 0.45
529 2 0.2 0.9 0.5
532 1 0.35 0.95 0.45
535 2 0.4 0.9 0.5
538 1 0.55 0.95 0.45
541 2 0.6 0.9 0.5
544 1 0.75 0.95 0.45
547 2 0.8 0.9 0.5
550 1 0.95 0.95 0.45
ITEM: TIMESTEP
10
ITEM: NUMBER OF ATOMS
554
ITEM: BOX BOUNDS pp pp pp
0.0000000000000000e+00 2.1800000000000001e+01
0.0000000000000000e+00 2.1800000000000001e+01
0.0000000000000000e+00 2.1800000000000001e+01
ITEM: ATOMS id type xs ys zs
1 2 0.997926 0.00233778 0.00345505
2 2 0.0975621 0.997568 0.0977013
3 2 0.00119608 0.100452 0.102098
4 2 0.101463 0.0989861 0.999427
5 1 0.0486071 0.0519696 0.0513658
9 2 0.202427 0.00239543 1.00014
11 2 0.201933 0.0992104 0.102243
13 1 0.253355 0.0529823 0.0472076
10 2 0.30079 0.000161024 0.0981209
12 2 0.30255 0.102543 0.99842
17 2 0.400695 0.999867 1.00038
19 2 0.398035 0.0998531 0.0976407
18 2 0.500507 0.998848 0.101178
20 2 0.500502 0.0980202 0.00180128
21 1 0.452637 0.0484592 0.049388
25 2 0.600647 0.997791 0.0024729
26 2 0.700341 0.998985 0.099046
27 2 0.60194 0.0982815 0.0995111
28 2 0.700583 0.101954 0.00365847
29 1 0.650498 0.0508893 0.0494385
33 2 0.798142 0.999851 0.00249565
35 2 0.800697 0.0998827 0.101178
37 1 0.851361 0.0513085 0.0510684
34 2 0.898172 0.997748 0.099704
36 2 0.897533 0.10095 0.998436
41 2 0.998797 0.201578 0.9985
42 2 0.0996519 0.201078 0.101334
45 1 0.0519255 0.248445 0.0507535
8 1 0.148358 0.15243 0.0472134
49 2 0.202189 0.198402 0.00232739
53 1 0.248291 0.251268 0.0464012
16 1 0.348955 0.150583 0.0495318
50 2 0.300672 0.200071 0.101296
57 2 0.401369 0.198969 0.00130539
24 1 0.549955 0.148332 0.0469905
58 2 0.499283 0.201562 0.0991211
61 1 0.452103 0.250749 0.0481373
65 2 0.601962 0.201565 0.00314558
66 2 0.700042 0.200792 0.0983106
69 1 0.652781 0.251168 0.048585
32 1 0.749784 0.149001 0.0497212
73 2 0.802224 0.198043 0.00103434
77 1 0.850032 0.251533 0.0479176
40 1 0.949634 0.147417 0.0458563
74 2 0.901109 0.197665 0.101833
43 2 0.999155 0.300942 0.0983686
44 2 0.0973924 0.3023 0.00220052
81 2 0.998007 0.399602 0.0018533
82 2 0.0977965 0.402215 0.0985873
48 1 0.149852 0.351059 0.0511907
51 2 0.199463 0.300779 0.101526
89 2 0.200821 0.397542 0.998301
52 2 0.297174 0.297973 0.999731
56 1 0.347632 0.347182 0.0464947
59 2 0.399162 0.298153 0.102347
90 2 0.298358 0.400898 0.0973684
97 2 0.399424 0.400037 0.99827
60 2 0.502542 0.297465 0.00215392
64 1 0.548657 0.351438 0.0458676
98 2 0.498349 0.397917 0.101271
67 2 0.600199 0.302059 0.0993748
68 2 0.70159 0.298868 0.999574
105 2 0.597422 0.401597 0.00209047
106 2 0.699633 0.402089 0.097371
72 1 0.751619 0.347504 0.0485978
75 2 0.801163 0.301679 0.0987668
113 2 0.802048 0.397737 1.00069
76 2 0.897599 0.300217 0.00278616
80 1 0.947696 0.350948 0.0480447
114 2 0.900747 0.398489 0.0984694
83 2 0.997893 0.499032 0.099351
84 2 0.101679 0.498972 0.00258245
85 1 0.0465232 0.452785 0.0467064
88 1 0.14969 0.548111 0.0460548
91 2 0.199424 0.499529 0.101004
93 1 0.249082 0.452141 0.0464062
92 2 0.299672 0.501849 1.00031
96 1 0.350474 0.550069 0.04574
99 2 0.40111 0.50083 0.100455
100 2 0.500667 0.498352 1.00092
101 1 0.447657 0.446966 0.0468681
104 1 0.551376 0.551998 0.0518044
107 2 0.599328 0.500033 0.101566
108 2 0.698148 0.502754 0.998767
109 1 0.650556 0.453125 0.0455124
112 1 0.750086 0.552703 0.0500572
115 2 0.800284 0.500727 0.101799
117 1 0.851389 0.447196 0.0462659
116 2 0.902576 0.498617 0.999713
120 1 0.949845 0.549511 0.0453947
121 2 0.00238977 0.600231 0.998783
122 2 0.100307 0.597569 0.1012
123 2 0.99918 0.701029 0.102323
124 2 0.101845 0.701098 0.999664
125 1 0.0479766 0.651032 0.0482923
129 2 0.198256 0.600139 0.999841
131 2 0.197254 0.701198 0.100838
133 1 0.247678 0.652657 0.0470324
130 2 0.300044 0.598495 0.098664
132 2 0.298871 0.698479 0.00142007
137 2 0.402648 0.59747 1.00035
139 2 0.399259 0.699758 0.10251
138 2 0.499416 0.598913 0.0989893
140 2 0.500485 0.702133 0.00248816
141 1 0.451127 0.649964 0.0495541
145 2 0.600195 0.597548 0.00284585
146 2 0.699384 0.600952 0.0994493
147 2 0.601943 0.701394 0.10152
148 2 0.699642 0.69909 0.999224
149 1 0.648968 0.649127 0.045822
153 2 0.797842 0.60007 0.998677
155 2 0.799419 0.701283 0.097458
157 1 0.847071 0.646791 0.047323
154 2 0.899422 0.597625 0.100834
156 2 0.897648 0.699197 0.00193983
161 2 0.998552 0.802202 0.00307804
162 2 0.102493 0.799902 0.100928
165 1 0.0515693 0.848177 0.0478617
128 1 0.147939 0.750505 0.0483017
169 2 0.199493 0.799231 0.00351743
173 1 0.249072 0.850003 0.047139
136 1 0.347458 0.750561 0.0470396
170 2 0.298196 0.79806 0.0991351
177 2 0.397019 0.801183 0.00325353
144 1 0.551414 0.75353 0.0478307
178 2 0.501092 0.801855 0.102025
181 1 0.447601 0.850422 0.0470063
185 2 0.602764 0.800413 0.999186
186 2 0.702409 0.798358 0.101577
189 1 0.652854 0.848323 0.0512568
152 1 0.749872 0.748462 0.0470842
193 2 0.8014 0.800542 0.00176376
197 1 0.853513 0.847215 0.0495832
160 1 0.947644 0.747909 0.0515955
194 2 0.901901 0.798651 0.100885
163 2 0.000680601 0.898158 0.102163
164 2 0.101194 0.90215 0.000905973
168 1 0.151897 0.948337 0.0506522
171 2 0.200093 0.899132 0.0986844
172 2 0.301438 0.900434 0.000912609
176 1 0.349006 0.948912 0.046405
179 2 0.398086 0.899999 0.0985717
180 2 0.502285 0.900753 0.999645
184 1 0.550656 0.951249 0.0515608
187 2 0.60218 0.898637 0.101137
188 2 0.699527 0.900034 0.999364
192 1 0.752694 0.946517 0.0499776
195 2 0.802904 0.898944 0.0984696
196 2 0.9013 0.901576 0.00317962
200 1 0.952223 0.951093 0.0469496
201 2 0.000944629 0.999129 0.20081
204 2 0.100452 0.100728 0.198863
205 1 0.0486566 0.0507271 0.24915
6 1 0.147773 0.0484431 0.147049
209 2 0.202243 0.000589523 0.201994
213 1 0.251517 0.0502039 0.252247
14 1 0.347459 0.051007 0.150326
212 2 0.29831 0.0999242 0.20032
217 2 0.399945 0.997762 0.199101
22 1 0.550195 0.047339 0.147815
220 2 0.500279 0.0994599 0.197843
221 1 0.448392 0.0466441 0.249521
225 2 0.59976 0.999399 0.200183
228 2 0.699037 0.0981407 0.201633
229 1 0.647682 0.0520116 0.252433
30 1 0.748269 0.0485251 0.14989
233 2 0.801028 0.00122613 0.201599
237 1 0.850684 0.0522301 0.248461
38 1 0.950725 0.0487002 0.148092
236 2 0.897756 0.101162 0.19991
7 1 0.0487139 0.148496 0.15257
241 2 0.000686592 0.200893 0.201619
245 1 0.0489434 0.252878 0.247609
15 1 0.248562 0.148195 0.15354
46 1 0.150091 0.248886 0.14914
208 1 0.146828 0.150828 0.251644
249 2 0.201947 0.200861 0.20174
253 1 0.251506 0.251692 0.249742
54 1 0.352661 0.250045 0.151108
216 1 0.347759 0.14871 0.248671
257 2 0.402105 0.198004 0.199706
23 1 0.450296 0.147378 0.147161
62 1 0.550413 0.250679 0.148175
224 1 0.547727 0.148388 0.248605
261 1 0.449714 0.246946 0.250772
31 1 0.652199 0.149956 0.148471
265 2 0.602488 0.200359 0.197943
269 1 0.653087 0.252015 0.248508
39 1 0.851537 0.152326 0.148986
70 1 0.75179 0.252355 0.147526
232 1 0.750091 0.148118 0.249819
273 2 0.801612 0.197888 0.198544
277 1 0.849814 0.246947 0.248829
78 1 0.948975 0.247128 0.149136
240 1 0.948844 0.147258 0.248287
47 1 0.0519763 0.350912 0.151556
244 2 0.100153 0.300772 0.198395
281 2 0.00194783 0.399344 0.197969
55 1 0.247637 0.347986 0.148964
248 1 0.150032 0.346822 0.249318
289 2 0.198301 0.399905 0.198688
252 2 0.30008 0.299435 0.201279
256 1 0.351838 0.34801 0.251767
297 2 0.398979 0.397506 0.199156
63 1 0.450243 0.350033 0.152131
260 2 0.501226 0.299615 0.200849
264 1 0.548308 0.349054 0.250105
71 1 0.650441 0.348938 0.148205
268 2 0.701584 0.301313 0.197454
305 2 0.598568 0.400097 0.199064
79 1 0.850234 0.351048 0.15116
272 1 0.748975 0.350339 0.253043
313 2 0.799994 0.398148 0.2018
276 2 0.899032 0.299148 0.19773
280 1 0.947297 0.349158 0.247497
87 1 0.052587 0.549905 0.150792
284 2 0.0999386 0.501241 0.201797
285 1 0.0529643 0.448955 0.249308
86 1 0.151125 0.449654 0.15016
95 1 0.247278 0.546858 0.152175
288 1 0.152237 0.547109 0.252031
293 1 0.24751 0.447277 0.252275
94 1 0.348046 0.450025 0.151118
292 2 0.299211 0.499403 0.201824
296 1 0.348147 0.551149 0.251502
102 1 0.550538 0.451558 0.152876
103 1 0.449438 0.549202 0.149802
300 2 0.497873 0.500377 0.200171
301 1 0.448599 0.447069 0.24908
304 1 0.551127 0.553128 0.251107
111 1 0.649332 0.549984 0.151672
308 2 0.700261 0.501509 0.199127
309 1 0.647453 0.449522 0.248648
110 1 0.74906 0.451346 0.152009
119 1 0.848998 0.550876 0.14998
312 1 0.752577 0.547228 0.251364
317 1 0.850708 0.449122 0.251995
118 1 0.949454 0.450579 0.150631
316 2 0.900495 0.501884 0.20091
320 1 0.951619 0.552217 0.247976
321 2 1.0003 0.597801 0.19841
324 2 0.0992037 0.700338 0.199024
325 1 0.0507068 0.652347 0.247868
126 1 0.148466 0.647363 0.148936
329 2 0.19802 0.597552 0.199202
333 1 0.249851 0.649487 0.249053
134 1 0.348709 0.648958 0.150782
332 2 0.297356 0.701122 0.199433
337 2 0.400819 0.601975 0.200175
142 1 0.548115 0.652865 0.150605
340 2 0.497488 0.702225 0.199946
341 1 0.448904 0.6494 0.25289
345 2 0.598895 0.600262 0.199565
348 2 0.702527 0.70096 0.202332
349 1 0.652466 0.648801 0.248368
150 1 0.748499 0.647733 0.149224
353 2 0.798028 0.601753 0.201455
357 1 0.848024 0.650922 0.252136
158 1 0.94952 0.646569 0.149446
356 2 0.90185 0.697571 0.200465
127 1 0.0531364 0.752323 0.149961
361 2 1.00012 0.798321 0.200751
365 1 0.0497065 0.851912 0.25179
135 1 0.246367 0.750147 0.151574
166 1 0.152724 0.849652 0.150116
328 1 0.146763 0.752218 0.251637
369 2 0.198475 0.798412 0.200054
373 1 0.248672 0.849591 0.24799
174 1 0.351525 0.852401 0.148436
336 1 0.351529 0.751041 0.249624
377 2 0.399412 0.800071 0.201663
143 1 0.452337 0.752474 0.151163
182 1 0.552564 0.852661 0.151474
344 1 0.549322 0.747598 0.252355
381 1 0.449049 0.849382 0.247648
151 1 0.653509 0.750532 0.148266
385 2 0.599672 0.797469 0.200486
389 1 0.650462 0.851178 0.249096
159 1 0.847437 0.752364 0.150244
190 1 0.748562 0.851021 0.150959
352 1 0.752875 0.750086 0.251107
393 2 0.797825 0.801658 0.198992
397 1 0.848127 0.847908 0.248997
198 1 0.951683 0.84988 0.151897
360 1 0.949947 0.746957 0.248105
167 1 0.0486409 0.950414 0.147424
364 2 0.0977415 0.901848 0.200449
175 1 0.251008 0.951962 0.148303
368 1 0.147158 0.951661 0.247251
372 2 0.298562 0.900058 0.201551
376 1 0.351891 0.948571 0.251497
183 1 0.451172 0.948394 0.149218
380 2 0.499098 0.900854 0.20178
384 1 0.547842 0.950915 0.250377
191 1 0.648008 0.948497 0.152824
388 2 0.700972 0.901325 0.201598
199 1 0.852262 0.952497 0.152698
392 1 0.752461 0.949931 0.252463
396 2 0.898763 0.901846 0.199301
400 1 0.947176 0.95249 0.252379
202 2 0.0996564 0.998115 0.301451
203 2 0.999233 0.0988282 0.299161
401 2 0.00276469 0.00161152 0.399548
404 2 0.101797 0.101076 0.398149
206 1 0.152199 0.0523692 0.350369
211 2 0.19804 0.100033 0.301898
407 2 0.200635 0.00243135 0.398684
210 2 0.298712 0.000480819 0.300937
214 1 0.351824 0.0498254 0.352405
219 2 0.398335 0.101208 0.298676
410 2 0.298336 0.102007 0.400828
413 2 0.40163 0.00213421 0.397772
218 2 0.500298 0.997835 0.301961
222 1 0.550033 0.0497223 0.347434
416 2 0.497717 0.100918 0.399435
226 2 0.698305 0.00227952 0.2985
227 2 0.599889 0.100502 0.298407
419 2 0.599468 0.997544 0.40142
422 2 0.699822 0.100444 0.397835
230 1 0.74806 0.0513052 0.348119
235 2 0.799124 0.098371 0.301527
425 2 0.800671 1.00005 0.3989
234 2 0.898136 0.000648352 0.29808
238 1 0.952491 0.0486042 0.351384
428 2 0.901953 0.0975062 0.398955
207 1 0.0505187 0.152892 0.348947
242 2 0.0977419 0.202183 0.299341
431 2 0.00151313 0.200586 0.400925
215 1 0.248989 0.150465 0.350948
246 1 0.152412 0.251119 0.347325
437 2 0.201296 0.201795 0.402456
250 2 0.300062 0.201313 0.301923
254 1 0.346903 0.250165 0.347893
443 2 0.400864 0.200886 0.397683
223 1 0.449336 0.152057 0.348477
258 2 0.502317 0.201691 0.300714
262 1 0.550576 0.251562 0.350622
231 1 0.64792 0.150899 0.347173
266 2 0.700422 0.19872 0.299799
449 2 0.601589 0.19763 0.397839
239 1 0.848689 0.147172 0.352089
270 1 0.752315 0.248504 0.351632
455 2 0.80052 0.198752 0.402401
274 2 0.900395 0.198855 0.302667
278 1 0.951473 0.250042 0.35123
243 2 0.997649 0.298564 0.301821
247 1 0.0505328 0.351763 0.348102
282 2 0.100241 0.399888 0.299075
434 2 0.100228 0.297886 0.400465
461 2 0.0015817 0.399583 0.401048
251 2 0.200038 0.29835 0.298437
255 1 0.249642 0.35169 0.349535
467 2 0.200126 0.399476 0.401758
259 2 0.398457 0.298901 0.300576
290 2 0.302389 0.398307 0.298778
440 2 0.29848 0.298094 0.4019
473 2 0.401508 0.402166 0.399501
263 1 0.448449 0.35245 0.348389
298 2 0.498131 0.400641 0.30174
446 2 0.497987 0.299941 0.399232
267 2 0.601497 0.30088 0.299011
271 1 0.649862 0.349443 0.34802
306 2 0.700914 0.399627 0.299532
452 2 0.701805 0.299145 0.399318
479 2 0.601408 0.400666 0.398182
275 2 0.800151 0.298396 0.302128
279 1 0.847222 0.349643 0.352785
485 2 0.799862 0.400555 0.402842
314 2 0.90069 0.39842 0.300324
458 2 0.900937 0.298273 0.400634
283 2 0.999964 0.498655 0.297831
287 1 0.0484361 0.548791 0.350329
464 2 0.0992613 0.500756 0.398002
286 1 0.149823 0.450278 0.349616
291 2 0.198977 0.498814 0.300285
295 1 0.251536 0.552161 0.350371
294 1 0.34963 0.451742 0.350717
299 2 0.39822 0.502526 0.298813
470 2 0.297982 0.502148 0.399161
302 1 0.551468 0.452521 0.348963
303 1 0.447844 0.55288 0.349827
476 2 0.498956 0.49963 0.400847
307 2 0.600465 0.499791 0.298283
311 1 0.647464 0.552851 0.35069
482 2 0.698294 0.500615 0.400613
310 1 0.751561 0.449938 0.350021
315 2 0.798684 0.499146 0.298927
319 1 0.849115 0.548052 0.350807
318 1 0.949793 0.450119 0.348613
488 2 0.897594 0.499867 0.399592
322 2 0.0978213 0.602135 0.299176
323 2 0.998627 0.700159 0.300434
491 2 0.9997 0.600767 0.398374
494 2 0.102761 0.699898 0.399593
326 1 0.151769 0.648507 0.348894
331 2 0.200653 0.697968 0.300006
497 2 0.200993 0.602413 0.40185
330 2 0.299886 0.599826 0.299152
334 1 0.350682 0.652585 0.350377
339 2 0.399338 0.698374 0.299952
500 2 0.298414 0.701266 0.398308
503 2 0.401815 0.601671 0.4006
338 2 0.500251 0.601587 0.302789
342 1 0.553355 0.653074 0.349468
506 2 0.501435 0.699565 0.400691
346 2 0.70227 0.599345 0.300424
347 2 0.601259 0.700124 0.301033
509 2 0.600688 0.602244 0.40181
512 2 0.70076 0.697821 0.402557
350 1 0.752361 0.646598 0.353689
355 2 0.797937 0.699516 0.302834
515 2 0.79976 0.597987 0.402573
354 2 0.900754 0.59971 0.297952
358 1 0.952227 0.652633 0.351849
518 2 0.89991 0.698485 0.398546
327 1 0.049497 0.748019 0.352497
362 2 0.0980237 0.801966 0.300661
521 2 0.0022013 0.80193 0.398652
335 1 0.252143 0.752127 0.35057
366 1 0.153395 0.848196 0.347689
527 2 0.201177 0.798926 0.399448
370 2 0.300015 0.79978 0.301748
374 1 0.349223 0.852302 0.352095
533 2 0.401622 0.801632 0.399284
343 1 0.447489 0.748028 0.349575
378 2 0.50221 0.79944 0.29811
382 1 0.552661 0.851906 0.351784
351 1 0.652949 0.752566 0.350977
386 2 0.701995 0.799033 0.298307
539 2 0.600996 0.801688 0.401972
359 1 0.852099 0.752439 0.35255
390 1 0.749421 0.85062 0.349531
545 2 0.797465 0.798052 0.39856
394 2 0.900103 0.801709 0.299978
398 1 0.94904 0.852861 0.350354
363 2 0.998435 0.898112 0.298716
367 1 0.0515218 0.946346 0.348483
524 2 0.102324 0.897178 0.399764
371 2 0.201291 0.902451 0.301622
375 1 0.248001 0.952319 0.347545
379 2 0.400932 0.900579 0.301851
530 2 0.300037 0.899688 0.398232
383 1 0.450525 0.951972 0.351151
536 2 0.498933 0.898719 0.400357
387 2 0.601179 0.902848 0.300522
391 1 0.652567 0.952224 0.352059
542 2 0.701752 0.898046 0.398534
395 2 0.801115 0.901529 0.301707
399 1 0.849853 0.950558 0.351052
548 2 0.902233 0.900323 0.402399
402 2 0.0993066 0.998775 0.496493
403 2 0.000165227 0.0987193 0.499973
405 1 0.0527205 0.0521948 0.451654
409 2 0.198478 0.100426 0.495083
411 1 0.248664 0.0524262 0.448601
408 2 0.301009 0.999887 0.497537
415 2 0.398795 0.101879 0.497653
414 2 0.500847 0.999909 0.497192
417 1 0.447221 0.047817 0.450222
420 2 0.69941 0.0021954 0.500402
421 2 0.598629 0.09963 0.500056
423 1 0.648933 0.0482995 0.454019
427 2 0.799834 0.100109 0.498751
429 1 0.851635 0.0488711 0.452674
426 2 0.898781 0.00204875 0.498356
432 2 0.0992279 0.197848 0.500143
435 1 0.0495991 0.249293 0.450435
406 1 0.149642 0.148914 0.452753
441 1 0.248237 0.249015 0.450941
412 1 0.349247 0.148135 0.453333
438 2 0.301088 0.198455 0.497626
418 1 0.547874 0.149818 0.453262
444 2 0.497884 0.200474 0.500321
447 1 0.452501 0.250645 0.448572
450 2 0.702141 0.197719 0.500011
453 1 0.649848 0.24891 0.452625
424 1 0.751375 0.1519 0.452839
459 1 0.849589 0.251564 0.452079
430 1 0.950271 0.151072 0.452776
456 2 0.899061 0.199317 0.498441
433 2 0.997693 0.298689 0.497189
462 2 0.0991289 0.397758 0.496908
436 1 0.152865 0.347661 0.45128
439 2 0.201717 0.300755 0.49725
442 1 0.346944 0.346803 0.453507
445 2 0.401538 0.300735 0.498017
468 2 0.29853 0.397305 0.497302
448 1 0.549113 0.347924 0.44851
474 2 0.498218 0.399529 0.497812
451 2 0.601023 0.29932 0.498078
480 2 0.69921 0.402159 0.498585
454 1 0.751803 0.348133 0.449596
457 2 0.798752 0.301622 0.500072
460 1 0.951326 0.35129 0.452258
486 2 0.900081 0.402015 0.497975
463 2 0.999053 0.5019 0.500265
465 1 0.0486698 0.4481 0.450088
466 1 0.151601 0.548443 0.453104
469 2 0.201632 0.500228 0.499384
471 1 0.250793 0.452798 0.454292
472 1 0.347957 0.547935 0.45357
475 2 0.402579 0.501657 0.497053
477 1 0.450455 0.447409 0.451699
478 1 0.546557 0.549088 0.452051
481 2 0.597206 0.500726 0.50148
483 1 0.649798 0.452571 0.453574
484 1 0.747141 0.550756 0.452391
487 2 0.80161 0.502295 0.498749
489 1 0.850738 0.448015 0.454485
490 1 0.950634 0.550911 0.452234
492 2 0.0991433 0.599507 0.497273
493 2 0.000293525 0.698012 0.496379
495 1 0.0523135 0.649937 0.450381
499 2 0.200959 0.701653 0.49649
501 1 0.250289 0.652951 0.448812
498 2 0.299303 0.598081 0.497234
505 2 0.397321 0.702188 0.500737
504 2 0.498222 0.601833 0.499522
507 1 0.448314 0.65102 0.454671
510 2 0.699464 0.597867 0.496534
511 2 0.599109 0.700913 0.499232
513 1 0.65069 0.648452 0.449373
517 2 0.800225 0.702194 0.498383
519 1 0.848163 0.648738 0.452687
516 2 0.899648 0.597901 0.501291
522 2 0.0998077 0.801168 0.497973
525 1 0.0510259 0.848628 0.449141
496 1 0.150349 0.748608 0.452998
531 1 0.247815 0.850869 0.454104
502 1 0.347462 0.751143 0.454283
528 2 0.298657 0.800312 0.501329
508 1 0.548349 0.74948 0.453758
534 2 0.500132 0.801445 0.499152
537 1 0.452779 0.850743 0.452928
540 2 0.699501 0.801098 0.496979
543 1 0.647866 0.849246 0.454558
514 1 0.750376 0.752461 0.45276
549 1 0.846942 0.847003 0.454355
520 1 0.95306 0.748894 0.449113
546 2 0.90046 0.79858 0.500292
523 2 0.999013 0.900466 0.499523
526 1 0.151761 0.950291 0.450312
529 2 0.197632 0.898346 0.497367
532 1 0.350126 0.95104 0.45042
535 2 0.401661 0.899893 0.498094
538 1 0.549239 0.947852 0.449101
541 2 0.602322 0.90005 0.501611
544 1 0.750794 0.95094 0.449768
547 2 0.800804 0.902531 0.498264
550 1 0.952066 0.950913 0.449065
551 1 0.880052 0.166123 0.722804
552 1 0.600753 0.536322 0.692244
553 2 0.716851 0.679112 0.812232
554 2 0.246688 0.140515 0.575397
ITEM: TIMESTEP
20
ITEM: NUMBER OF ATOMS
556
ITEM: BOX BOUNDS pp pp pp
0.0000000000000000e+00 2.1800000000000001e+01
0.0000000000000000e+00 2.1800000000000001e+01
0.0000000000000000e+00 2.1800000000000001e+01
ITEM: ATOMS id type xs ys zs
1 2 0.996311 0.00528258 0.00469809
2 2 0.0979434 0.999308 0.0997364
3 2 0.000842492 0.101116 0.102352
4 2 0.10193 0.098257 1.00097
5 1 0.0500357 0.0516627 0.0479419
9 2 0.203331 0.00384177 0.00164555
11 2 0.201549 0.0992987 0.101272
13 1 0.254417 0.0539153 0.0450729
10 2 0.301938 0.000703412 0.0966233
12 2 0.302788 0.104418 0.99734
17 2 0.401595 0.999346 0.00182167
19 2 0.398305 0.0984261 0.0975748
18 2 0.500705 0.997525 0.100998
20 2 0.501513 0.0964177 0.00356467
21 1 0.450357 0.0472215 0.0483299
25 2 0.601565 0.997191 0.0052061
26 2 0.699605 0.997014 0.100938
27 2 0.601316 0.0976946 0.0998773
28 2 0.701404 0.100957 0.0043662
29 1 0.652039 0.0482526 0.0475442
33 2 0.798978 1.00045 0.00473246