ITEM: TIMESTEP
0
ITEM: NUMBER OF ATOMS
550
ITEM: BOX BOUNDS pp pp pp
0.0000000000000000e+00 2.1800000000000001e+01
0.0000000000000000e+00 2.1800000000000001e+01
0.0000000000000000e+00 2.1800000000000001e+01
ITEM: ATOMS id type xs ys zs
1 2 0 0 0
2 2 0.1 0 0.1
3 2 0 0.1 0.1
4 2 0.1 0.1 0
5 1 0.05 0.05 0.05
6 1 0.15 0.05 0.15
7 1 0.05 0.15 0.15
8 1 0.15 0.15 0.05
9 2 0.2 0 0
10 2 0.3 0 0.1
11 2 0.2 0.1 0.1
12 2 0.3 0.1 0
13 1 0.25 0.05 0.05
14 1 0.35 0.05 0.15
15 1 0.25 0.15 0.15
16 1 0.35 0.15 0.05
17 2 0.4 0 0
18 2 0.5 0 0.1
19 2 0.4 0.1 0.1
20 2 0.5 0.1 0
21 1 0.45 0.05 0.05
22 1 0.55 0.05 0.15
23 1 0.45 0.15 0.15
24 1 0.55 0.15 0.05
25 2 0.6 0 0
26 2 0.7 0 0.1
27 2 0.6 0.1 0.1
28 2 0.7 0.1 0
29 1 0.65 0.05 0.05
30 1 0.75 0.05 0.15
31 1 0.65 0.15 0.15
32 1 0.75 0.15 0.05
33 2 0.8 0 0
34 2 0.9 0 0.1
35 2 0.8 0.1 0.1
36 2 0.9 0.1 0
37 1 0.85 0.05 0.05
38 1 0.95 0.05 0.15
39 1 0.85 0.15 0.15
40 1 0.95 0.15 0.05
41 2 0 0.2 0
42 2 0.1 0.2 0.1
43 2 0 0.3 0.1
44 2 0.1 0.3 0
45 1 0.05 0.25 0.05
46 1 0.15 0.25 0.15
47 1 0.05 0.35 0.15
48 1 0.15 0.35 0.05
49 2 0.2 0.2 0
50 2 0.3 0.2 0.1
51 2 0.2 0.3 0.1
52 2 0.3 0.3 0
53 1 0.25 0.25 0.05
54 1 0.35 0.25 0.15
55 1 0.25 0.35 0.15
56 1 0.35 0.35 0.05
57 2 0.4 0.2 0
58 2 0.5 0.2 0.1
59 2 0.4 0.3 0.1
60 2 0.5 0.3 0
61 1 0.45 0.25 0.05
62 1 0.55 0.25 0.15
63 1 0.45 0.35 0.15
64 1 0.55 0.35 0.05
65 2 0.6 0.2 0
66 2 0.7 0.2 0.1
67 2 0.6 0.3 0.1
68 2 0.7 0.3 0
69 1 0.65 0.25 0.05
70 1 0.75 0.25 0.15
71 1 0.65 0.35 0.15
72 1 0.75 0.35 0.05
73 2 0.8 0.2 0
74 2 0.9 0.2 0.1
75 2 0.8 0.3 0.1
76 2 0.9 0.3 0
77 1 0.85 0.25 0.05
78 1 0.95 0.25 0.15
79 1 0.85 0.35 0.15
80 1 0.95 0.35 0.05
81 2 0 0.4 0
82 2 0.1 0.4 0.1
83 2 0 0.5 0.1
84 2 0.1 0.5 0
85 1 0.05 0.45 0.05
86 1 0.15 0.45 0.15
87 1 0.05 0.55 0.15
88 1 0.15 0.55 0.05
89 2 0.2 0.4 0
90 2 0.3 0.4 0.1
91 2 0.2 0.5 0.1
92 2 0.3 0.5 0
93 1 0.25 0.45 0.05
94 1 0.35 0.45 0.15
95 1 0.25 0.55 0.15
96 1 0.35 0.55 0.05
97 2 0.4 0.4 0
98 2 0.5 0.4 0.1
99 2 0.4 0.5 0.1
100 2 0.5 0.5 0
101 1 0.45 0.45 0.05
102 1 0.55 0.45 0.15
103 1 0.45 0.55 0.15
104 1 0.55 0.55 0.05
105 2 0.6 0.4 0
106 2 0.7 0.4 0.1
107 2 0.6 0.5 0.1
108 2 0.7 0.5 0
109 1 0.65 0.45 0.05
110 1 0.75 0.45 0.15
111 1 0.65 0.55 0.15
112 1 0.75 0.55 0.05
113 2 0.8 0.4 0
114 2 0.9 0.4 0.1
115 2 0.8 0.5 0.1
116 2 0.9 0.5 0
117 1 0.85 0.45 0.05
118 1 0.95 0.45 0.15
119 1 0.85 0.55 0.15
120 1 0.95 0.55 0.05
121 2 0 0.6 0
122 2 0.1 0.6 0.1
123 2 0 0.7 0.1
124 2 0.1 0.7 0
125 1 0.05 0.65 0.05
126 1 0.15 0.65 0.15
127 1 0.05 0.75 0.15
128 1 0.15 0.75 0.05
129 2 0.2 0.6 0
130 2 0.3 0.6 0.1
131 2 0.2 0.7 0.1
132 2 0.3 0.7 0
133 1 0.25 0.65 0.05
134 1 0.35 0.65 0.15
135 1 0.25 0.75 0.15
136 1 0.35 0.75 0.05
137 2 0.4 0.6 0
138 2 0.5 0.6 0.1
139 2 0.4 0.7 0.1
140 2 0.5 0.7 0
141 1 0.45 0.65 0.05
142 1 0.55 0.65 0.15
143 1 0.45 0.75 0.15
144 1 0.55 0.75 0.05
145 2 0.6 0.6 0
146 2 0.7 0.6 0.1
147 2 0.6 0.7 0.1
148 2 0.7 0.7 0
149 1 0.65 0.65 0.05
150 1 0.75 0.65 0.15
151 1 0.65 0.75 0.15
152 1 0.75 0.75 0.05
153 2 0.8 0.6 0
154 2 0.9 0.6 0.1
155 2 0.8 0.7 0.1
156 2 0.9 0.7 0
157 1 0.85 0.65 0.05
158 1 0.95 0.65 0.15
159 1 0.85 0.75 0.15
160 1 0.95 0.75 0.05
161 2 0 0.8 0
162 2 0.1 0.8 0.1
163 2 0 0.9 0.1
164 2 0.1 0.9 0
165 1 0.05 0.85 0.05
166 1 0.15 0.85 0.15
167 1 0.05 0.95 0.15
168 1 0.15 0.95 0.05
169 2 0.2 0.8 0
170 2 0.3 0.8 0.1
171 2 0.2 0.9 0.1
172 2 0.3 0.9 0
173 1 0.25 0.85 0.05
174 1 0.35 0.85 0.15
175 1 0.25 0.95 0.15
176 1 0.35 0.95 0.05
177 2 0.4 0.8 0
178 2 0.5 0.8 0.1
179 2 0.4 0.9 0.1
180 2 0.5 0.9 0
181 1 0.45 0.85 0.05
182 1 0.55 0.85 0.15
183 1 0.45 0.95 0.15
184 1 0.55 0.95 0.05
185 2 0.6 0.8 0
186 2 0.7 0.8 0.1
187 2 0.6 0.9 0.1
188 2 0.7 0.9 0
189 1 0.65 0.85 0.05
190 1 0.75 0.85 0.15
191 1 0.65 0.95 0.15
192 1 0.75 0.95 0.05
193 2 0.8 0.8 0
194 2 0.9 0.8 0.1
195 2 0.8 0.9 0.1
196 2 0.9 0.9 0
197 1 0.85 0.85 0.05
198 1 0.95 0.85 0.15
199 1 0.85 0.95 0.15
200 1 0.95 0.95 0.05
201 2 0 0 0.2
202 2 0.1 0 0.3
203 2 0 0.1 0.3
204 2 0.1 0.1 0.2
205 1 0.05 0.05 0.25
206 1 0.15 0.05 0.35
207 1 0.05 0.15 0.35
208 1 0.15 0.15 0.25
209 2 0.2 0 0.2
210 2 0.3 0 0.3
211 2 0.2 0.1 0.3
212 2 0.3 0.1 0.2
213 1 0.25 0.05 0.25
214 1 0.35 0.05 0.35
215 1 0.25 0.15 0.35
216 1 0.35 0.15 0.25
217 2 0.4 0 0.2
218 2 0.5 0 0.3
219 2 0.4 0.1 0.3
220 2 0.5 0.1 0.2
221 1 0.45 0.05 0.25
222 1 0.55 0.05 0.35
223 1 0.45 0.15 0.35
224 1 0.55 0.15 0.25
225 2 0.6 0 0.2
226 2 0.7 0 0.3
227 2 0.6 0.1 0.3
228 2 0.7 0.1 0.2
229 1 0.65 0.05 0.25
230 1 0.75 0.05 0.35
231 1 0.65 0.15 0.35
232 1 0.75 0.15 0.25
233 2 0.8 0 0.2
234 2 0.9 0 0.3
235 2 0.8 0.1 0.3
236 2 0.9 0.1 0.2
237 1 0.85 0.05 0.25
238 1 0.95 0.05 0.35
239 1 0.85 0.15 0.35
240 1 0.95 0.15 0.25
241 2 0 0.2 0.2
242 2 0.1 0.2 0.3
243 2 0 0.3 0.3
244 2 0.1 0.3 0.2
245 1 0.05 0.25 0.25
246 1 0.15 0.25 0.35
247 1 0.05 0.35 0.35
248 1 0.15 0.35 0.25
249 2 0.2 0.2 0.2
250 2 0.3 0.2 0.3
251 2 0.2 0.3 0.3
252 2 0.3 0.3 0.2
253 1 0.25 0.25 0.25
254 1 0.35 0.25 0.35
255 1 0.25 0.35 0.35
256 1 0.35 0.35 0.25
257 2 0.4 0.2 0.2
258 2 0.5 0.2 0.3
259 2 0.4 0.3 0.3
260 2 0.5 0.3 0.2
261 1 0.45 0.25 0.25
262 1 0.55 0.25 0.35
263 1 0.45 0.35 0.35
264 1 0.55 0.35 0.25
265 2 0.6 0.2 0.2
266 2 0.7 0.2 0.3
267 2 0.6 0.3 0.3
268 2 0.7 0.3 0.2
269 1 0.65 0.25 0.25
270 1 0.75 0.25 0.35
271 1 0.65 0.35 0.35
272 1 0.75 0.35 0.25
273 2 0.8 0.2 0.2
274 2 0.9 0.2 0.3
275 2 0.8 0.3 0.3
276 2 0.9 0.3 0.2
277 1 0.85 0.25 0.25
278 1 0.95 0.25 0.35
279 1 0.85 0.35 0.35
280 1 0.95 0.35 0.25
281 2 0 0.4 0.2
282 2 0.1 0.4 0.3
283 2 0 0.5 0.3
284 2 0.1 0.5 0.2
285 1 0.05 0.45 0.25
286 1 0.15 0.45 0.35
287 1 0.05 0.55 0.35
288 1 0.15 0.55 0.25
289 2 0.2 0.4 0.2
290 2 0.3 0.4 0.3
291 2 0.2 0.5 0.3
292 2 0.3 0.5 0.2
293 1 0.25 0.45 0.25
294 1 0.35 0.45 0.35
295 1 0.25 0.55 0.35
296 1 0.35 0.55 0.25
297 2 0.4 0.4 0.2
298 2 0.5 0.4 0.3
299 2 0.4 0.5 0.3
300 2 0.5 0.5 0.2
301 1 0.45 0.45 0.25
302 1 0.55 0.45 0.35
303 1 0.45 0.55 0.35
304 1 0.55 0.55 0.25
305 2 0.6 0.4 0.2
306 2 0.7 0.4 0.3
307 2 0.6 0.5 0.3
308 2 0.7 0.5 0.2
309 1 0.65 0.45 0.25
310 1 0.75 0.45 0.35
311 1 0.65 0.55 0.35
312 1 0.75 0.55 0.25
313 2 0.8 0.4 0.2
314 2 0.9 0.4 0.3
315 2 0.8 0.5 0.3
316 2 0.9 0.5 0.2
317 1 0.85 0.45 0.25
318 1 0.95 0.45 0.35
319 1 0.85 0.55 0.35
320 1 0.95 0.55 0.25
321 2 0 0.6 0.2
322 2 0.1 0.6 0.3
323 2 0 0.7 0.3
324 2 0.1 0.7 0.2
325 1 0.05 0.65 0.25
326 1 0.15 0.65 0.35
327 1 0.05 0.75 0.35
328 1 0.15 0.75 0.25
329 2 0.2 0.6 0.2
330 2 0.3 0.6 0.3
331 2 0.2 0.7 0.3
332 2 0.3 0.7 0.2
333 1 0.25 0.65 0.25
334 1 0.35 0.65 0.35
335 1 0.25 0.75 0.35
336 1 0.35 0.75 0.25
337 2 0.4 0.6 0.2
338 2 0.5 0.6 0.3
339 2 0.4 0.7 0.3
340 2 0.5 0.7 0.2
341 1 0.45 0.65 0.25
342 1 0.55 0.65 0.35
343 1 0.45 0.75 0.35
344 1 0.55 0.75 0.25
345 2 0.6 0.6 0.2
346 2 0.7 0.6 0.3
347 2 0.6 0.7 0.3
348 2 0.7 0.7 0.2
349 1 0.65 0.65 0.25
350 1 0.75 0.65 0.35
351 1 0.65 0.75 0.35
352 1 0.75 0.75 0.25
353 2 0.8 0.6 0.2
354 2 0.9 0.6 0.3
355 2 0.8 0.7 0.3
356 2 0.9 0.7 0.2
357 1 0.85 0.65 0.25
358 1 0.95 0.65 0.35
359 1 0.85 0.75 0.35
360 1 0.95 0.75 0.25
361 2 0 0.8 0.2
362 2 0.1 0.8 0.3
363 2 0 0.9 0.3
364 2 0.1 0.9 0.2
365 1 0.05 0.85 0.25
366 1 0.15 0.85 0.35
367 1 0.05 0.95 0.35
368 1 0.15 0.95 0.25
369 2 0.2 0.8 0.2
370 2 0.3 0.8 0.3
371 2 0.2 0.9 0.3
372 2 0.3 0.9 0.2
373 1 0.25 0.85 0.25
374 1 0.35 0.85 0.35
375 1 0.25 0.95 0.35
376 1 0.35 0.95 0.25
377 2 0.4 0.8 0.2
378 2 0.5 0.8 0.3
379 2 0.4 0.9 0.3
380 2 0.5 0.9 0.2
381 1 0.45 0.85 0.25
382 1 0.55 0.85 0.35
383 1 0.45 0.95 0.35
384 1 0.55 0.95 0.25
385 2 0.6 0.8 0.2
386 2 0.7 0.8 0.3
387 2 0.6 0.9 0.3
388 2 0.7 0.9 0.2
389 1 0.65 0.85 0.25
390 1 0.75 0.85 0.35
391 1 0.65 0.95 0.35
392 1 0.75 0.95 0.25
393 2 0.8 0.8 0.2
394 2 0.9 0.8 0.3
395 2 0.8 0.9 0.3
396 2 0.9 0.9 0.2
397 1 0.85 0.85 0.25
398 1 0.95 0.85 0.35
399 1 0.85 0.95 0.35
400 1 0.95 0.95 0.25
401 2 0 0 0.4
402 2 0.1 0 0.5
403 2 0 0.1 0.5
404 2 0.1 0.1 0.4
405 1 0.05 0.05 0.45
406 1 0.15 0.15 0.45
407 2 0.2 0 0.4
408 2 0.3 0 0.5
409 2 0.2 0.1 0.5
410 2 0.3 0.1 0.4
411 1 0.25 0.05 0.45
412 1 0.35 0.15 0.45
413 2 0.4 0 0.4
414 2 0.5 0 0.5
415 2 0.4 0.1 0.5
416 2 0.5 0.1 0.4
417 1 0.45 0.05 0.45
418 1 0.55 0.15 0.45
419 2 0.6 0 0.4
420 2 0.7 0 0.5
421 2 0.6 0.1 0.5
422 2 0.7 0.1 0.4
423 1 0.65 0.05 0.45
424 1 0.75 0.15 0.45
425 2 0.8 0 0.4
426 2 0.9 0 0.5
427 2 0.8 0.1 0.5
428 2 0.9 0.1 0.4
429 1 0.85 0.05 0.45
430 1 0.95 0.15 0.45
431 2 0 0.2 0.4
432 2 0.1 0.2 0.5
433 2 0 0.3 0.5
434 2 0.1 0.3 0.4
435 1 0.05 0.25 0.45
436 1 0.15 0.35 0.45
437 2 0.2 0.2 0.4
438 2 0.3 0.2 0.5
439 2 0.2 0.3 0.5
440 2 0.3 0.3 0.4
441 1 0.25 0.25 0.45
442 1 0.35 0.35 0.45
443 2 0.4 0.2 0.4
444 2 0.5 0.2 0.5
445 2 0.4 0.3 0.5
446 2 0.5 0.3 0.4
447 1 0.45 0.25 0.45
448 1 0.55 0.35 0.45
449 2 0.6 0.2 0.4
450 2 0.7 0.2 0.5
451 2 0.6 0.3 0.5
452 2 0.7 0.3 0.4
453 1 0.65 0.25 0.45
454 1 0.75 0.35 0.45
455 2 0.8 0.2 0.4
456 2 0.9 0.2 0.5
457 2 0.8 0.3 0.5
458 2 0.9 0.3 0.4
459 1 0.85 0.25 0.45
460 1 0.95 0.35 0.45
461 2 0 0.4 0.4
462 2 0.1 0.4 0.5
463 2 0 0.5 0.5
464 2 0.1 0.5 0.4
465 1 0.05 0.45 0.45
466 1 0.15 0.55 0.45
467 2 0.2 0.4 0.4
468 2 0.3 0.4 0.5
469 2 0.2 0.5 0.5
470 2 0.3 0.5 0.4
471 1 0.25 0.45 0.45
472 1 0.35 0.55 0.45
473 2 0.4 0.4 0.4
474 2 0.5 0.4 0.5
475 2 0.4 0.5 0.5
476 2 0.5 0.5 0.4
477 1 0.45 0.45 0.45
478 1 0.55 0.55 0.45
479 2 0.6 0.4 0.4
480 2 0.7 0.4 0.5
481 2 0.6 0.5 0.5
482 2 0.7 0.5 0.4
483 1 0.65 0.45 0.45
484 1 0.75 0.55 0.45
485 2 0.8 0.4 0.4
486 2 0.9 0.4 0.5
487 2 0.8 0.5 0.5
488 2 0.9 0.5 0.4
489 1 0.85 0.45 0.45
490 1 0.95 0.55 0.45
491 2 0 0.6 0.4
492 2 0.1 0.6 0.5
493 2 0 0.7 0.5
494 2 0.1 0.7 0.4
495 1 0.05 0.65 0.45
496 1 0.15 0.75 0.45
497 2 0.2 0.6 0.4
498 2 0.3 0.6 0.5
499 2 0.2 0.7 0.5
500 2 0.3 0.7 0.4
501 1 0.25 0.65 0.45
502 1 0.35 0.75 0.45
503 2 0.4 0.6 0.4
504 2 0.5 0.6 0.5
505 2 0.4 0.7 0.5
506 2 0.5 0.7 0.4
507 1 0.45 0.65 0.45
508 1 0.55 0.75 0.45
509 2 0.6 0.6 0.4
510 2 0.7 0.6 0.5
511 2 0.6 0.7 0.5
512 2 0.7 0.7 0.4
513 1 0.65 0.65 0.45
514 1 0.75 0.75 0.45
515 2 0.8 0.6 0.4
516 2 0.9 0.6 0.5
517 2 0.8 0.7 0.5
518 2 0.9 0.7 0.4
519 1 0.85 0.65 0.45
520 1 0.95 0.75 0.45
521 2 0 0.8 0.4
522 2 0.1 0.8 0.5
523 2 0 0.9 0.5
524 2 0.1 0.9 0.4
525 1 0.05 0.85 0.45
526 1 0.15 0.95 0.45
527 2 0.2 0.8 0.4
528 2 0.3 0.8 0.5
529 2 0.2 0.9 0.5
530 2 0.3 0.9 0.4
531 1 0.25 0.85 0.45
532 1 0.35 0.95 0.45
533 2 0.4 0.8 0.4
534 2 0.5 0.8 0.5
535 2 0.4 0.9 0.5
536 2 0.5 0.9 0.4
537 1 0.45 0.85 0.45
538 1 0.55 0.95 0.45
539 2 0.6 0.8 0.4
540 2 0.7 0.8 0.5
541 2 0.6 0.9 0.5
542 2 0.7 0.9 0.4
543 1 0.65 0.85 0.45
544 1 0.75 0.95 0.45
545 2 0.8 0.8 0.4
546 2 0.9 0.8 0.5
547 2 0.8 0.9 0.5
548 2 0.9 0.9 0.4
549 1 0.85 0.85 0.45
550 1 0.95 0.95 0.45
