288
Atoms. Timestep: 0
2 0 0 0
2 2.1798 0 2.1798
2 0 2.1798 2.1798
2 2.1798 2.1798 0
1 1.0899 1.0899 1.0899
1 3.2697 1.0899 3.2697
1 1.0899 3.2697 3.2697
1 3.2697 3.2697 1.0899
2 4.3596 0 0
2 6.5394 0 2.1798
2 4.3596 2.1798 2.1798
2 6.5394 2.1798 0
1 5.4495 1.0899 1.0899
1 7.6293 1.0899 3.2697
1 5.4495 3.2697 3.2697
1 7.6293 3.2697 1.0899
2 8.7192 0 0
2 10.899 0 2.1798
2 8.7192 2.1798 2.1798
2 10.899 2.1798 0
1 9.8091 1.0899 1.0899
1 11.9889 1.0899 3.2697
1 9.8091 3.2697 3.2697
1 11.9889 3.2697 1.0899
2 13.0788 0 0
2 15.2586 0 2.1798
2 13.0788 2.1798 2.1798
2 15.2586 2.1798 0
1 14.1687 1.0899 1.0899
1 16.3485 1.0899 3.2697
1 14.1687 3.2697 3.2697
1 16.3485 3.2697 1.0899
2 0 4.3596 0
2 2.1798 4.3596 2.1798
2 0 6.5394 2.1798
2 2.1798 6.5394 0
1 1.0899 5.4495 1.0899
1 3.2697 5.4495 3.2697
1 1.0899 7.6293 3.2697
1 3.2697 7.6293 1.0899
2 4.3596 4.3596 0
2 6.5394 4.3596 2.1798
2 4.3596 6.5394 2.1798
2 6.5394 6.5394 0
1 5.4495 5.4495 1.0899
1 7.6293 5.4495 3.2697
1 5.4495 7.6293 3.2697
1 7.6293 7.6293 1.0899
2 8.7192 4.3596 0
2 10.899 4.3596 2.1798
2 8.7192 6.5394 2.1798
2 10.899 6.5394 0
1 9.8091 5.4495 1.0899
1 11.9889 5.4495 3.2697
1 9.8091 7.6293 3.2697
1 11.9889 7.6293 1.0899
2 13.0788 4.3596 0
2 15.2586 4.3596 2.1798
2 13.0788 6.5394 2.1798
2 15.2586 6.5394 0
1 14.1687 5.4495 1.0899
1 16.3485 5.4495 3.2697
1 14.1687 7.6293 3.2697
1 16.3485 7.6293 1.0899
2 0 8.7192 0
2 2.1798 8.7192 2.1798
2 0 10.899 2.1798
2 2.1798 10.899 0
1 1.0899 9.8091 1.0899
1 3.2697 9.8091 3.2697
1 1.0899 11.9889 3.2697
1 3.2697 11.9889 1.0899
2 4.3596 8.7192 0
2 6.5394 8.7192 2.1798
2 4.3596 10.899 2.1798
2 6.5394 10.899 0
1 5.4495 9.8091 1.0899
1 7.6293 9.8091 3.2697
1 5.4495 11.9889 3.2697
1 7.6293 11.9889 1.0899
2 8.7192 8.7192 0
2 10.899 8.7192 2.1798
2 8.7192 10.899 2.1798
2 10.899 10.899 0
1 9.8091 9.8091 1.0899
1 11.9889 9.8091 3.2697
1 9.8091 11.9889 3.2697
1 11.9889 11.9889 1.0899
2 13.0788 8.7192 0
2 15.2586 8.7192 2.1798
2 13.0788 10.899 2.1798
2 15.2586 10.899 0
1 14.1687 9.8091 1.0899
1 16.3485 9.8091 3.2697
1 14.1687 11.9889 3.2697
1 16.3485 11.9889 1.0899
2 0 13.0788 0
2 2.1798 13.0788 2.1798
2 0 15.2586 2.1798
2 2.1798 15.2586 0
1 1.0899 14.1687 1.0899
1 3.2697 14.1687 3.2697
1 1.0899 16.3485 3.2697
1 3.2697 16.3485 1.0899
2 4.3596 13.0788 0
2 6.5394 13.0788 2.1798
2 4.3596 15.2586 2.1798
2 6.5394 15.2586 0
1 5.4495 14.1687 1.0899
1 7.6293 14.1687 3.2697
1 5.4495 16.3485 3.2697
1 7.6293 16.3485 1.0899
2 8.7192 13.0788 0
2 10.899 13.0788 2.1798
2 8.7192 15.2586 2.1798
2 10.899 15.2586 0
1 9.8091 14.1687 1.0899
1 11.9889 14.1687 3.2697
1 9.8091 16.3485 3.2697
1 11.9889 16.3485 1.0899
2 13.0788 13.0788 0
2 15.2586 13.0788 2.1798
2 13.0788 15.2586 2.1798
2 15.2586 15.2586 0
1 14.1687 14.1687 1.0899
1 16.3485 14.1687 3.2697
1 14.1687 16.3485 3.2697
1 16.3485 16.3485 1.0899
2 0 0 4.3596
2 2.1798 0 6.5394
2 0 2.1798 6.5394
2 2.1798 2.1798 4.3596
1 1.0899 1.0899 5.4495
1 3.2697 1.0899 7.6293
1 1.0899 3.2697 7.6293
1 3.2697 3.2697 5.4495
2 4.3596 0 4.3596
2 6.5394 0 6.5394
2 4.3596 2.1798 6.5394
2 6.5394 2.1798 4.3596
1 5.4495 1.0899 5.4495
1 7.6293 1.0899 7.6293
1 5.4495 3.2697 7.6293
1 7.6293 3.2697 5.4495
2 8.7192 0 4.3596
2 10.899 0 6.5394
2 8.7192 2.1798 6.5394
2 10.899 2.1798 4.3596
1 9.8091 1.0899 5.4495
1 11.9889 1.0899 7.6293
1 9.8091 3.2697 7.6293
1 11.9889 3.2697 5.4495
2 13.0788 0 4.3596
2 15.2586 0 6.5394
2 13.0788 2.1798 6.5394
2 15.2586 2.1798 4.3596
1 14.1687 1.0899 5.4495
1 16.3485 1.0899 7.6293
1 14.1687 3.2697 7.6293
1 16.3485 3.2697 5.4495
2 0 4.3596 4.3596
2 2.1798 4.3596 6.5394
2 0 6.5394 6.5394
2 2.1798 6.5394 4.3596
1 1.0899 5.4495 5.4495
1 3.2697 5.4495 7.6293
1 1.0899 7.6293 7.6293
1 3.2697 7.6293 5.4495
2 4.3596 4.3596 4.3596
2 6.5394 4.3596 6.5394
2 4.3596 6.5394 6.5394
2 6.5394 6.5394 4.3596
1 5.4495 5.4495 5.4495
1 7.6293 5.4495 7.6293
1 5.4495 7.6293 7.6293
1 7.6293 7.6293 5.4495
2 8.7192 4.3596 4.3596
2 10.899 4.3596 6.5394
2 8.7192 6.5394 6.5394
2 10.899 6.5394 4.3596
1 9.8091 5.4495 5.4495
1 11.9889 5.4495 7.6293
1 9.8091 7.6293 7.6293
1 11.9889 7.6293 5.4495
2 13.0788 4.3596 4.3596
2 15.2586 4.3596 6.5394
2 13.0788 6.5394 6.5394
2 15.2586 6.5394 4.3596
1 14.1687 5.4495 5.4495
1 16.3485 5.4495 7.6293
1 14.1687 7.6293 7.6293
1 16.3485 7.6293 5.4495
2 0 8.7192 4.3596
2 2.1798 8.7192 6.5394
2 0 10.899 6.5394
2 2.1798 10.899 4.3596
1 1.0899 9.8091 5.4495
1 3.2697 9.8091 7.6293
1 1.0899 11.9889 7.6293
1 3.2697 11.9889 5.4495
2 4.3596 8.7192 4.3596
2 6.5394 8.7192 6.5394
2 4.3596 10.899 6.5394
2 6.5394 10.899 4.3596
1 5.4495 9.8091 5.4495
1 7.6293 9.8091 7.6293
1 5.4495 11.9889 7.6293
1 7.6293 11.9889 5.4495
2 8.7192 8.7192 4.3596
2 10.899 8.7192 6.5394
2 8.7192 10.899 6.5394
2 10.899 10.899 4.3596
1 9.8091 9.8091 5.4495
1 11.9889 9.8091 7.6293
1 9.8091 11.9889 7.6293
1 11.9889 11.9889 5.4495
2 13.0788 8.7192 4.3596
2 15.2586 8.7192 6.5394
2 13.0788 10.899 6.5394
2 15.2586 10.899 4.3596
1 14.1687 9.8091 5.4495
1 16.3485 9.8091 7.6293
1 14.1687 11.9889 7.6293
1 16.3485 11.9889 5.4495
2 0 13.0788 4.3596
2 2.1798 13.0788 6.5394
2 0 15.2586 6.5394
2 2.1798 15.2586 4.3596
1 1.0899 14.1687 5.4495
1 3.2697 14.1687 7.6293
1 1.0899 16.3485 7.6293
1 3.2697 16.3485 5.4495
2 4.3596 13.0788 4.3596
2 6.5394 13.0788 6.5394
2 4.3596 15.2586 6.5394
2 6.5394 15.2586 4.3596
1 5.4495 14.1687 5.4495
1 7.6293 14.1687 7.6293
1 5.4495 16.3485 7.6293
1 7.6293 16.3485 5.4495
2 8.7192 13.0788 4.3596
2 10.899 13.0788 6.5394
2 8.7192 15.2586 6.5394
2 10.899 15.2586 4.3596
1 9.8091 14.1687 5.4495
1 11.9889 14.1687 7.6293
1 9.8091 16.3485 7.6293
1 11.9889 16.3485 5.4495
2 13.0788 13.0788 4.3596
2 15.2586 13.0788 6.5394
2 13.0788 15.2586 6.5394
2 15.2586 15.2586 4.3596
1 14.1687 14.1687 5.4495
1 16.3485 14.1687 7.6293
1 14.1687 16.3485 7.6293
1 16.3485 16.3485 5.4495
2 0 0 8.7192
2 2.1798 2.1798 8.7192
2 4.3596 0 8.7192
2 6.5394 2.1798 8.7192
2 8.7192 0 8.7192
2 10.899 2.1798 8.7192
2 13.0788 0 8.7192
2 15.2586 2.1798 8.7192
2 0 4.3596 8.7192
2 2.1798 6.5394 8.7192
2 4.3596 4.3596 8.7192
2 6.5394 6.5394 8.7192
2 8.7192 4.3596 8.7192
2 10.899 6.5394 8.7192
2 13.0788 4.3596 8.7192
2 15.2586 6.5394 8.7192
2 0 8.7192 8.7192
2 2.1798 10.899 8.7192
2 4.3596 8.7192 8.7192
2 6.5394 10.899 8.7192
2 8.7192 8.7192 8.7192
2 10.899 10.899 8.7192
2 13.0788 8.7192 8.7192
2 15.2586 10.899 8.7192
2 0 13.0788 8.7192
2 2.1798 15.2586 8.7192
2 4.3596 13.0788 8.7192
2 6.5394 15.2586 8.7192
2 8.7192 13.0788 8.7192
2 10.899 15.2586 8.7192
2 13.0788 13.0788 8.7192
2 15.2586 15.2586 8.7192
296
Atoms. Timestep: 1
2 17.2116 0.450508 0.140616
2 2.17886 17.4374 2.17891
2 0.000541772 2.17998 2.18066
2 2.18038 2.17947 17.4378
2 1.08959 1.0903 1.09056
1 3.26923 1.08969 3.2691
2 1.08959 3.26927 3.2702
1 3.26931 3.27026 1.08957
2 4.36048 0.00089435 17.438
2 6.53966 3.28597e-05 2.1792
2 4.36044 2.17947 2.1808
2 6.54032 2.18068 17.4375
2 5.45006 1.09042 1.08972
2 7.62878 1.09017 3.26983
1 5.44916 3.26928 3.27038
1 7.62905 3.26975 1.09019
2 8.71941 5.9036e-06 17.4382
2 10.8992 17.4381 2.18028
2 8.71844 2.17987 2.17892
2 10.8991 2.17915 0.000372054
1 9.80969 1.08969 1.09008
2 11.9889 1.08937 3.26924
1 9.80917 3.26917 3.26925
1 11.9888 3.26935 1.08956
2 13.079 17.4375 0.000504117
2 15.2588 17.4382 2.17939
2 13.0796 2.17915 2.17963
2 15.2589 2.18059 0.00101064
1 14.1687 1.09019 1.09017
1 16.3481 1.08965 3.26962
2 14.1691 3.26977 3.26943
1 16.3483 3.26944 1.0901
2 17.4377 4.3595 0.000484091
2 2.17888 4.35863 2.1797
2 0.000279357 6.53932 2.18017
2 2.17894 6.53981 17.4375
1 1.09028 5.44982 1.09048
1 3.26993 5.44929 3.26926
1 1.09025 7.62995 3.26949
1 3.26959 7.62877 1.08941
2 4.35915 4.3602 17.4375
2 6.5393 4.36019 2.18027
2 4.35928 6.53981 2.17913
2 6.53844 6.54022 0.000367692
2 5.45002 5.44913 1.09042
1 7.62926 5.44925 3.26945
2 5.44993 7.62948 3.27024
2 7.62933 7.62947 1.09049
2 8.72002 4.35905 0.000572238
2 10.8994 4.35961 2.18025
2 8.71911 6.53985 2.18053
2 10.898 6.53867 17.4381
1 9.80878 5.44981 1.08934
1 11.9895 5.44965 3.26979
1 9.80855 7.62881 3.26944
1 11.9884 7.62879 1.08958
2 13.0793 4.35923 7.88524e-05
2 15.2583 4.36039 2.1795
2 13.0784 6.53862 2.18082
2 15.1991 6.46373 0.288444
1 14.1692 5.4497 1.08981
1 16.3485 5.4496 3.26938
2 14.1688 7.6295 3.27012
1 16.3483 7.62962 1.08928
2 0.000734755 8.71981 0.000822992
2 2.17963 8.71948 2.17913
2 6.80626e-05 10.8998 2.17976
2 2.18029 10.8986 17.4379
1 1.09047 9.80925 1.08994
1 3.26996 9.80963 3.2693
2 1.08999 11.9885 3.26942
1 3.27001 11.9883 1.09005
2 4.3604 8.71856 17.4384
2 6.5398 8.7183 2.18077
2 4.36005 10.8997 2.17921
2 6.53839 10.899 0.000839214
2 5.44951 9.80957 1.08968
2 7.62901 9.8085 3.26954
1 5.44955 11.9891 3.27004
1 7.62885 11.9892 1.08988
2 8.71853 8.71903 0.000398929
2 10.8982 8.71997 2.17921
2 8.71838 10.8985 2.17957
2 10.8997 10.8987 0.000747456
2 9.80848 9.80971 1.08958
1 11.9893 9.80896 3.26977
2 9.80971 11.989 3.26989
1 11.9888 11.9885 1.08932
2 13.0791 8.71832 17.4374
2 15.2581 8.71961 2.17885
2 13.0786 10.8989 2.18031
2 15.2585 10.8997 17.4383
1 14.1686 9.80953 1.0896
2 16.3481 9.80915 3.26998
1 14.1681 11.9883 3.27018
1 16.3485 11.989 1.08936
2 17.4383 13.079 17.4375
2 2.17917 13.078 2.18032
2 0.000574814 15.259 2.18007
2 2.17998 15.258 17.4383
1 1.08939 14.1681 1.08956
1 3.26996 14.1691 3.27036
2 1.08978 16.3483 3.26966
1 3.27005 16.3491 1.09057
2 4.35866 13.0793 0.000504095
2 6.53921 13.0796 2.17887
2 4.35927 15.2586 2.18036
2 6.53866 15.2594 17.4376
2 5.44974 14.1693 1.08934
1 7.62908 14.169 3.27014
1 5.44939 16.3484 3.27012
1 7.62938 16.3491 1.09028
2 8.71996 13.0781 17.4384
2 10.8993 13.0781 2.1791
2 8.71929 15.259 2.18059
2 10.9 15.2582 17.4381
2 9.80931 14.1681 1.08946
2 11.9888 14.1689 3.26988
1 9.80894 16.3487 3.26954
1 11.9888 16.3484 1.08933
2 13.0797 13.0789 17.4377
2 15.2588 13.0779 2.18049
2 13.0785 15.2591 2.18067
2 15.2594 15.2591 17.4379
1 14.1682 14.1689 1.08984
2 16.3482 14.1682 3.26946
2 14.1694 16.349 3.26969
1 16.348 16.3486 1.08983
2 17.4378 3.81958e-05 4.35923
2 2.17995 17.4379 6.53892
2 17.4375 2.18032 6.53977
2 2.17937 2.17919 4.35986
2 1.08958 1.09052 5.44917
2 3.26953 1.08967 7.62946
1 1.08925 3.26978 7.62969
1 3.26926 3.26995 5.44915
2 4.36046 17.4375 4.35941
2 6.53915 17.4379 6.5389
2 4.35931 2.17964 6.54041
2 6.53957 2.18055 4.3601
1 5.44975 1.0899 5.44974
1 7.62898 1.09046 7.62945
1 5.45011 3.27012 7.62952
1 7.62949 3.27034 5.44933
2 8.71927 17.4375 4.36032
2 10.8989 0.000410694 6.5392
2 8.71993 2.18032 6.54014
2 10.8989 2.17952 4.35904
1 9.80888 1.08971 5.44895
2 11.9886 1.08928 7.62916
1 9.80972 3.2699 7.62877
1 11.9889 3.26936 5.44934
2 13.0781 6.97468e-05 4.35882
2 15.2585 17.4375 6.53993
2 13.0786 2.18046 6.53841
2 15.2578 2.17959 4.3599
2 14.1681 1.08931 5.44929
2 16.3484 1.08931 7.62919
2 14.1682 3.27025 7.62938
1 16.348 3.26931 5.45014
2 17.438 4.36054 4.36033
2 2.18073 4.35951 6.53983
2 0.000217261 6.53873 6.54039
2 2.18023 6.54032 4.35964
1 1.0901 5.44906 5.44929
1 3.27031 5.44939 7.6293
1 1.08967 7.62946 7.62873
1 3.27003 7.62887 5.45008
2 4.35946 4.35936 4.36057
2 6.53881 4.35879 6.53903
2 4.35949 6.53909 6.53883
2 6.54003 6.53969 4.35967
1 5.44926 5.44952 5.44926
1 7.62978 5.45011 7.62894
1 5.4497 7.62974 7.62899
1 7.62902 7.629 5.44912
2 8.71819 4.36005 4.36051
2 10.8994 4.36013 6.54025
2 8.71837 6.53931 6.53899
2 10.8998 6.53969 4.35906
1 9.80856 5.44952 5.4492
1 11.9894 5.45008 7.62949
1 9.80941 7.62904 7.62921
2 11.989 7.62971 5.45008
2 13.0797 4.35973 4.35894
2 15.2595 4.35897 6.54017
2 13.0796 6.53887 6.53981
2 15.2584 6.53947 4.35894
1 14.1692 5.44923 5.45008
2 16.3481 5.44962 7.62955
1 14.1682 7.62899 7.62988
1 16.3491 7.62866 5.44988
2 0.000495201 8.71947 4.35988
2 2.18053 8.71868 6.53959
2 0.000985729 10.8987 6.53862
2 2.18023 10.8997 4.36047
2 1.09045 9.80856 5.44973
2 3.27008 9.80913 7.62963
2 1.0905 11.9895 7.62991
2 3.27019 11.9892 5.44901
2 4.36007 8.71887 4.35998
2 6.53923 8.71834 6.54003
2 4.3593 10.8985 6.53907
2 6.53963 10.8994 4.35914
1 5.44913 9.80932 5.44932
1 7.62987 9.80972 7.62938
2 5.44965 11.9895 7.62914
1 7.62865 11.989 5.44983
2 8.72014 8.71937 4.36049
2 10.8983 8.71939 6.53973
2 8.71819 10.8989 6.5404
2 10.8984 10.8991 4.35962
2 9.8095 9.80906 5.44987
1 11.9894 9.80892 7.62988
1 9.80895 11.9889 7.62944
1 11.9885 11.9886 5.44925
2 13.0788 8.71842 4.35934
2 15.2588 8.71833 6.54025
2 13.0782 10.8995 6.53892
2 15.2588 10.899 4.35888
1 14.1683 9.80845 5.44942
1 16.3485 9.80906 7.62871
1 14.1685 11.9893 7.62913
2 16.3479 11.9885 5.44932
2 3.12222e-05 13.0785 4.35957
2 2.17912 13.0797 6.53868
2 0.000141215 15.2587 6.5388
2 2.17947 15.2578 4.36034
1 1.0895 14.1692 5.45014
1 3.26932 14.1691 7.62894
2 1.08942 16.3488 7.62885
1 3.26967 16.3482 5.44948
2 4.36001 13.0793 4.36024
2 6.53869 13.0789 6.53847
2 4.35924 15.258 6.54008
2 6.53841 15.2592 4.35978
1 5.44975 14.1691 5.44913
1 7.6298 14.1685 7.62974
1 5.44921 16.348 7.62965
1 7.62908 16.3479 5.44907
2 8.71957 13.0792 4.36027
2 10.8981 13.0795 6.53924
2 8.71829 15.2579 6.54027
2 10.899 15.259 4.35902
1 9.80893 14.1692 5.44898
1 11.9894 14.169 7.62872
2 9.80922 16.349 7.62888
1 11.9889 16.3479 5.44943
2 13.0796 13.0792 4.36019
2 15.2588 13.0794 6.54033
2 13.0787 15.2579 6.53888
2 15.2585 15.2584 4.36015
2 14.169 14.1691 5.44937
1 16.3478 14.1687 7.62871
1 14.1686 16.349 7.62922
1 16.3489 16.3482 5.44996
2 0.000816586 17.4378 8.71912
2 2.1807 2.18053 8.71949
2 4.35897 17.4381 8.71942
2 6.53996 2.17979 8.7195
2 8.71901 17.4374 8.71939
2 10.899 2.18024 8.71943
2 13.0785 0.000879457 8.7186
2 15.2581 2.17941 8.71912
2 0.000959746 4.35976 8.71845
2 2.25889 6.59333 8.40821
2 4.3602 4.35997 8.71888
2 6.53989 6.53986 8.71821
2 8.72002 4.36024 8.71885
2 10.8997 6.5392 8.71964
2 13.0785 4.35941 8.71859
2 15.2582 6.53972 8.72018
2 0.000795639 8.71831 8.7187
2 2.17994 10.8987 8.72021
2 4.35968 8.71867 8.72003
2 6.5391 10.8988 8.71836
2 8.71908 8.71832 8.71875
2 10.8995 10.8992 8.71939
2 13.0778 8.71917 8.71993
2 15.2577 10.8989 8.71849
2 0.000763617 13.0785 8.71832
2 2.17975 15.2586 8.7189
2 4.35957 13.0783 8.71844
2 6.58222 15.2778 8.31963
2 8.72019 13.0785 8.71908
2 10.9099 15.1256 8.68521
2 13.0784 13.0783 8.71955
2 15.2595 15.2576 8.71978
2 13.8729 10.0971 9.66929
2 13.2925 4.08691 16.3249
2 13.2835 9.40859 16.1446
2 0.468986 0.093315 16.3278
2 0.789109 9.37746 16.211
2 1.53958 14.5753 9.52977
2 0.944556 6.21246 9.19731
2 0.730522 1.25537 15.9018
313
Atoms. Timestep: 2
2 17.2107 0.451101 0.141695
2 2.1778 17.4364 2.17801
2 0.0011838 2.18017 2.18153
2 2.1809 2.17908 17.4373
2 1.08916 1.09096 1.0916
1 3.26877 1.08949 3.2685
2 1.08912 3.2686 3.27097
2 3.26893 3.27082 1.08922
2 4.36141 0.00185008 17.4378
2 6.53993 0.000173014 2.17861
2 4.36132 2.17909 2.18175
2 6.54117 2.18151 17.4367
2 5.45093 1.09122 1.08943
2 7.84002 0.907371 3.11686
1 5.44882 3.26886 3.27106
1 7.62879 3.2698 1.09047
2 8.71963 1.182e-05 17.438
2 10.8995 17.4378 2.1808
2 8.71763 2.17989 2.17809
2 10.8993 2.17849 0.000772135
1 9.81028 1.08948 1.09025
2 11.9888 1.08857 3.26855
1 9.80925 3.26865 3.26881
1 11.9887 3.269 1.08922
2 13.0791 17.4367 0.00103627
2 15.2589 17.4379 2.17903
2 13.0804 2.1785 2.17956
2 15.2592 2.18139 0.00204928
2 14.1687 1.09048 1.09043
2 16.3477 1.0894 3.26954
2 14.1697 3.26986 3.26902
1 16.3481 3.26918 1.0903
2 17.4369 4.35941 0.000996266
2 2.17791 4.3576 2.17965
2 0.000559699 6.53924 2.18054
2 2.17809 6.54022 17.4367
1 1.09066 5.45015 1.09106
1 3.27016 5.44908 3.26882
2 1.09061 7.63059 3.26929
2 3.26949 7.62824 1.08892
2 4.35875 4.36086 17.4366
2 6.53915 4.36084 2.18069
2 4.71957 6.57206 2.28853
2 6.53747 6.54104 0.000880283
2 5.45081 5.44858 1.0912
2 7.62922 5.449 3.26919
2 5.45058 7.62977 3.27106
2 7.62937 7.62974 1.09136
2 8.72084 4.3585 0.00117252
2 10.8997 4.35962 2.1807
2 8.71898 6.54036 2.18121
2 10.897 6.53794 17.4378
1 9.80847 5.45012 1.08878
1 11.9901 5.4498 3.26987
1 9.80799 7.62832 3.26918
2 11.988 7.62828 1.08925
2 13.0797 4.35889 0.000374583
2 15.0105 4.31966 2.28532
2 13.078 6.53788 2.1819
2 15.2 6.4628 0.288995
1 14.1697 5.44989 1.08972
1 16.3486 5.4497 3.26905
2 14.1689 7.6298 3.27076
1 16.348 7.62993 1.08867
2 0.00146855 8.72042 0.00165705
2 2.17945 8.71975 2.17845
2 0.000135723 10.9006 2.17982
2 2.18079 10.8983 17.4375
1 1.09103 9.80941 1.09001
1 3.27022 9.81016 3.26889
2 1.09012 11.9879 3.26901
1 3.27033 11.9877 1.0902
2 4.36126 8.71798 7.98632e-05
2 6.5402 8.7174 2.18175
2 4.36055 10.9003 2.17856
2 6.53732 10.8989 0.0017616
2 5.44952 9.81028 1.08931
2 7.62857 9.80758 3.26928
1 5.44961 11.9894 3.27038
2 7.6284 11.9895 1.08984
2 8.71785 8.71886 0.000942601
2 10.8973 8.7208 2.17857
2 8.71761 10.8979 2.1794
2 10.9003 10.8983 0.00157815
2 9.80752 9.81063 1.08906
1 11.9897 9.80883 3.26984
2 9.81064 11.9893 3.27017
2 11.9886 11.9881 1.08872
2 13.0794 8.71746 17.4365
2 15.2575 8.72001 2.17801
2 13.0784 10.8988 2.18082
2 15.1288 10.996 0.130278
2 14.1685 9.80995 1.0893
2 16.3475 9.80922 3.27042
1 14.1675 11.9877 3.27067
2 16.3486 11.989 1.08881
2 17.4383 13.0792 17.4366
2 2.1785 13.0771 2.18089
2 0.00115045 15.2595 2.18045
2 2.18016 15.2574 17.4382
1 1.08889 14.1675 1.08921
2 3.27021 14.1694 3.27103
2 1.0896 16.3479 3.2696
2 3.27039 16.3497 1.09122
2 4.55317 13.0911 17.3482
2 6.53896 13.0805 2.1779
2 4.359 15.2585 2.18087
2 6.53787 15.2602 17.437
2 5.4501 14.1702 1.08847
1 7.62885 14.1694 3.27058
1 5.44927 16.3484 3.27054
1 7.62946 16.3497 1.09065
2 8.72078 13.0775 7.90682e-06
2 10.8996 13.0776 2.17845
2 8.71944 15.2593 2.18133
2 10.9009 15.2578 17.4378
2 9.80964 14.1672 1.08876
2 12.2314 14.349 3.40893
2 9.80877 16.3488 3.26938
1 11.9887 16.3483 1.08875
2 13.0806 13.0791 17.4369
2 15.259 13.0771 2.18123
2 13.0782 15.2595 2.18166
2 15.2601 15.2595 17.4375
1 14.1677 14.169 1.08977
2 16.3478 14.1674 3.26909
2 14.1703 16.3497 3.26967
1 16.3476 16.3487 1.08975
2 17.4373 7.637e-05 4.35885
2 1.99577 17.3411 6.50339
2 17.4365 2.18074 6.54015
2 2.17883 2.17859 4.36011
2 1.0891 1.09147 5.44866
2 3.26926 1.08933 7.62974
1 1.08861 3.26986 7.63009
2 3.26881 3.2702 5.44881
2 4.36133 17.4365 4.35921
2 6.5389 17.4374 6.53839
2 4.16572 2.12082 6.52929
2 6.53979 2.18124 4.36055
2 5.45001 1.0899 5.44997
1 7.62866 1.09102 7.62961
2 5.45072 3.27053 7.62974
1 7.62969 3.27098 5.44915
2 8.71928 17.4367 4.36098
2 10.8988 0.000819256 6.53911
2 8.72067 2.18083 6.54088
2 10.8988 2.17918 4.35842
1 9.80865 1.08951 5.44841
2 11.9881 1.08834 7.62898
2 9.81034 3.27009 7.62825
1 11.9889 3.26902 5.44918
2 13.0774 0.000194872 4.35799
2 15.2583 17.4368 6.54046
2 13.0785 2.18106 6.53747
2 15.2569 2.17938 4.36021
2 14.1673 1.0884 5.44896
2 16.3482 1.08841 7.62906
2 14.1673 3.27109 7.62953
1 16.3475 3.26892 5.45079
2 17.4377 4.36143 4.361
2 2.18167 4.35941 6.54027
2 0.000380587 6.53801 6.54142
2 2.18067 6.54124 4.35968
1 1.0903 5.44862 5.44908
1 3.27093 5.44927 7.6293
1 1.08942 7.62964 7.62816
1 3.27035 7.62844 5.45066
2 4.35931 4.35911 4.36154
2 6.53822 4.35798 6.53867
2 4.35938 6.53879 6.53825
2 6.5406 6.54003 4.35969
1 5.44903 5.44953 5.44902
1 7.63025 5.45073 7.6286
1 5.4499 7.63018 7.62869
1 7.62874 7.6287 5.44873
2 8.71719 4.3605 4.36142
2 10.8997 4.36066 6.54111
2 8.71753 6.53921 6.53858
2 10.9007 6.54004 4.35858
1 9.80803 5.44954 5.44889
1 11.99 5.45065 7.62969
1 9.80972 7.62878 7.62912
2 11.9891 7.63033 5.45096
2 13.0807 4.3598 4.35822
2 15.2603 4.35834 6.54104
2 13.0803 6.5384 6.54017
2 15.2581 6.53959 4.35823
1 14.1696 5.44895 5.45065
2 16.3476 5.44981 7.62996
1 14.1676 7.62869 7.63047
1 16.3496 7.62802 5.45026
2 0.000990242 8.71984 4.36017
2 2.18126 8.71827 6.53978
2 0.00202681 10.8985 6.53778
2 2.18061 10.9004 4.3614
2 1.09129 9.80774 5.45007
2 3.27066 9.80919 7.63016
2 1.09143 11.9903 7.63086
2 3.05452 11.7318 5.51583
2 4.36059 8.7185 4.3603
2 6.53907 8.71748 6.54065
2 4.35895 10.8981 6.5388
2 6.53992 10.8997 4.35863
1 5.44876 9.80953 5.44913
1 7.63045 9.81033 7.62947
2 5.44986 11.9905 7.62891
1 7.62799 11.9892 5.45015
2 8.72108 8.71965 4.36139
2 10.8976 8.71958 6.53995
2 8.71724 10.8987 6.54136
2 10.5706 10.9409 4.34106
2 9.81011 9.809 5.45044
1 11.9899 9.80873 7.63046
2 9.80879 11.9889 7.62959
2 11.9881 11.9882 5.449
2 13.0789 8.71754 4.35909
2 15.2589 8.71746 6.54109
2 13.0775 10.9001 6.53845
2 15.2591 10.8991 4.35816
1 14.168 9.80781 5.44934
1 16.3485 9.80901 7.62813
1 14.1684 11.9897 7.62896
2 16.3471 11.9879 5.44904
2 6.8168e-06 13.0782 4.35949
2 2.17843 13.0806 6.53796
2 0.000334081 15.2589 6.53826
2 2.17908 15.2571 4.36103
1 1.08909 14.1697 5.45079
1 3.26895 14.1694 7.62858
2 1.08868 16.3493 7.62819
1 3.26964 16.3479 5.44946
2 4.36037 13.0797 4.36093
2 6.53793 13.079 6.53759
2 4.35888 15.2573 6.54075
2 6.53742 15.2597 4.35997
2 5.45 14.1695 5.44876
2 7.6303 14.1683 7.63017
1 5.44892 16.3476 7.63
1 7.62886 16.3473 5.44863
2 8.70987 13.1402 4.22471
2 10.8973 13.0801 6.53908
2 8.71744 15.2573 6.54119
2 10.8991 15.2593 4.35839
1 9.80876 14.1697 5.44846
2 11.99 14.1694 7.62815
2 9.80939 16.3497 7.62825
1 11.9889 16.3472 5.44936
2 13.0805 13.0797 4.36078
2 15.259 13.0801 6.54115
2 13.0786 15.2571 6.5383
2 15.2584 15.258 4.36064
2 14.1694 14.1698 5.44917
2 16.3472 14.1687 7.62812
1 14.1685 16.3494 7.62914
1 16.3493 16.3479 5.45042
2 0.00163272 17.4372 8.7189
2 2.18167 2.1812 8.7197
2 4.35828 17.4378 8.71955
2 6.54052 2.17977 8.71976
2 8.71888 17.4364 8.71949
2 10.7812 1.85372 8.55353
2 13.0781 0.00182016 8.71791
2 15.2575 2.17902 8.7189
2 0.00185773 4.35998 8.71761
2 2.25899 6.59276 8.4082
2 4.3608 4.36035 8.71854
2 6.54038 6.54031 8.7172
2 8.73095 4.09761 8.8944
2 10.9004 6.53901 8.72005
2 13.0783 4.35916 8.71789
2 15.2578 6.53999 8.72107
2 0.00158944 8.71743 8.71818
2 2.18008 10.8984 8.72107
2 4.3597 8.71821 8.72077
2 6.53874 10.8987 8.71743
2 8.71896 8.71744 8.71828
2 11.0773 11.0915 8.55946
2 13.0768 8.71921 8.72069
2 15.0451 10.5481 8.8733
2 0.00158847 13.0782 8.71735
2 2.1797 15.2588 8.71843
2 4.35959 13.0777 8.7176
2 6.58201 15.2784 8.32036
2 8.72118 13.0783 8.71894
2 10.9098 15.1259 8.68496
2 12.7576 12.9958 8.53718
2 15.2604 15.2566 8.72034
2 13.8718 10.0966 9.66888
2 13.2927 4.08674 16.325
2 13.2835 9.40929 16.1441
2 0.469222 0.0939311 16.3283
2 0.789153 9.37649 16.2101
2 1.54028 14.5756 9.53033
2 0.944965 6.21245 9.19736
2 0.730232 1.25602 15.9014
2 6.07968 9.52754 9.91204
2 7.07258 8.74312 9.71572
2 1.95556 13.131 9.17627
2 4.48566 4.21729 10.2666
2 12.3375 13.5191 9.87817
2 16.4064 6.33222 16.4795
2 8.51277 9.4532 16.0543
2 0.996421 5.99158 11.1919
2 8.13364 2.40562 9.03956
2 16.8014 1.71358 9.3579
2 4.40931 11.584 9.35405
2 15.6212 10.9314 10.5006
2 1.65947 6.72109 12.8064
2 1.6058 11.491 16.5736
2 17.0672 4.81805 10.4761
2 13.3344 10.9688 10.9952
2 3.47581 16.6816 10.2296
326
Atoms. Timestep: 3
2 17.2099 0.451604 0.1429
2 2.17669 17.4354 2.17705
2 0.00187376 2.18032 2.18248
2 2.18141 2.17869 17.437
2 0.922956 1.03279 1.37291
2 3.2683 1.08928 3.2679
2 1.08865 3.26792 3.27174
2 3.26834 3.27168 1.08867
2 4.36235 0.00280518 17.4376
2 6.54019 0.000402186 2.178
2 4.36221 2.17871 2.18259
2 6.54196 2.18227 17.436
2 5.45179 1.09202 1.08911
2 7.83919 0.907759 3.11702
1 5.44848 3.26844 3.27173
1 7.62853 3.26984 1.09075
2 8.71984 1.77613e-05 17.4378
2 10.8997 17.4375 2.18144
2 8.71681 2.17989 2.17728
2 10.8994 2.17784 0.0012002
1 9.81087 1.08927 1.09041
2 11.9887 1.08776 3.26785
2 9.80932 3.26812 3.26836
1 11.9886 3.26865 1.08886
2 13.0793 17.4359 0.00165179
2 15.259 17.4378 2.17872
2 13.0813 2.17779 2.17955
2 15.2594 2.18212 0.00317057
2 14.1688 1.09093 1.09081
2 16.3472 1.08902 3.26941
2 14.1702 3.26991 3.26865
1 16.348 3.26891 1.09048
2 17.4362 4.35931 0.00153731
2 2.17694 4.35647 2.17959
2 0.000892037 6.53921 2.18097
2 2.1773 6.5407 17.4359
1 1.09103 5.45047 1.09162
1 3.2704 5.44888 3.26838
2 1.09115 7.63158 3.26897
2 3.29867 8.02455 1.28192
2 4.35836 4.36152 17.436
2 6.539 4.36158 2.18112
2 4.71935 6.57245 2.28787
2 6.53651 6.54186 0.00153363
2 5.45165 5.448 1.0919
2 7.62915 5.44862 3.2688
2 5.45129 7.63009 3.2719
2 7.49471 7.84711 0.756515
2 8.72165 4.35795 0.00180082
2 10.9001 4.35963 2.18115
2 8.89383 6.39302 2.28844
2 10.896 6.53727 17.4376
2 9.80815 5.45043 1.0882
1 11.9906 5.44995 3.26996
2 9.80744 7.62784 3.26892
2 11.9873 7.62751 1.08873
2 13.08 4.35858 0.00088636
2 15.0101 4.32037 2.28508
2 13.0776 6.53726 2.18297
2 15.201 6.4619 0.289501
1 14.1702 5.45008 1.08964
2 16.3486 5.4498 3.26872
2 14.1691 7.6301 3.2714
2 16.3478 7.63027 1.08808
2 0.00220241 8.72104 0.00250194
2 2.17929 8.71991 2.17778
2 0.000146749 10.9015 2.17994
2 2.18134 10.8978 17.4372
1 1.09161 9.80957 1.0901
1 3.27049 9.81068 3.26848
2 1.09025 11.9873 3.2686
1 3.27065 11.9872 1.09033
2 4.36212 8.71739 0.000310436
2 6.5406 8.71651 2.18272
2 4.3611 10.9008 2.17786
2 6.53625 10.8989 0.00282802
2 5.44954 9.81098 1.08892
2 7.62813 9.80666 3.26902
2 5.44966 11.9896 3.27072
2 7.62771 11.9899 1.08977
2 8.71718 8.71871 0.00159978
2 10.8964 8.72162 2.17783
2 8.71684 10.8974 2.17922
2 10.901 10.898 0.00255276
2 9.80657 9.81156 1.08854
1 11.9901 9.80869 3.26991
2 9.81153 11.9895 3.2704
2 11.9884 11.9875 1.0878
2 13.0797 8.71661 17.4357
2 15.2569 8.72048 2.17722
2 13.0783 10.8987 2.18123
2 15.1288 10.9967 0.130234
2 14.1682 9.81057 1.08889
2 16.347 9.8093 3.27086
1 14.167 11.9871 3.27115
2 16.3486 11.9891 1.08797
2 17.4382 13.0793 17.4358
2 2.21423 12.9388 2.32924
2 0.00172656 15.2599 2.18093
2 2.1804 15.2569 17.4382
1 1.08838 14.1669 1.08885
2 3.2706 14.1699 3.27204
2 1.08942 16.3475 3.26954
2 3.27092 16.3506 1.0922
2 4.55231 13.0917 17.3489
2 6.53872 13.0813 2.17681
2 4.35867 15.2584 2.18131
2 6.53701 15.261 17.4364
2 5.45048 14.1711 1.08758
1 7.62863 14.1697 3.27101
1 5.44916 16.3483 3.27096
1 7.62954 16.3503 1.09101
2 8.7216 13.0769 0.00019824
2 10.8999 13.0769 2.17773
2 8.71969 15.2596 2.18206
2 10.9017 15.2573 17.4376
2 10.0966 13.9891 0.95636
2 12.2313 14.3493 3.40926
2 9.80854 16.349 3.26912
2 11.9886 16.3482 1.08817
2 13.0815 13.0792 17.4363
2 15.3861 13.1784 2.11158
2 13.0779 15.26 2.1827
2 15.2609 15.26 17.4371
2 14.1776 14.1839 0.982263
2 16.3474 14.1667 3.26872
2 14.1713 16.3505 3.26966
2 16.3471 16.3488 1.08967
2 17.4369 0.000168259 4.35842
2 1.99584 17.3407 6.50293
2 17.4356 2.18105 6.54052
2 2.17824 2.17804 4.36042
2 1.08859 1.09243 5.44813
2 3.57337 1.23105 7.96192
1 1.08797 3.26993 7.63049
2 3.2681 3.27061 5.44826
2 4.56561 17.3826 4.63144
2 6.5386 17.437 6.53783
2 4.16542 2.12058 6.5303
2 6.53993 2.1819 4.36108
2 5.4504 1.08989 5.45032
1 7.62835 1.09157 7.62977
2 5.4517 3.2712 7.63016
1 7.62988 3.27162 5.44898
2 8.71933 17.4359 4.36158
2 10.8988 0.00121609 6.53912
2 8.72145 2.1814 6.54167
2 10.8988 2.17879 4.35775
2 9.80843 1.08932 5.44786
2 11.9877 1.08735 7.62878
2 9.81131 3.27034 7.62744
2 11.9888 3.26868 5.44902
2 13.0768 0.00037508 4.3571
2 15.2582 17.4362 6.54099
2 13.0785 2.18161 6.53659
2 15.2559 2.17911 4.36046
2 14.1664 1.0875 5.44864
2 16.348 1.08749 7.62884
2 14.1665 3.27192 7.62971
1 16.347 3.26853 5.45143
2 17.4374 4.36227 4.36162
2 2.18265 4.35927 6.54065
2 0.00048993 6.53724 6.5425
2 2.18105 6.54221 4.35967
1 1.0905 5.44818 5.44887
1 3.27155 5.44915 7.6293
2 1.08916 7.62983 7.62758
1 3.27068 7.62801 5.45124
2 4.17209 4.13101 4.67208
2 6.53757 4.35712 6.53835
2 4.35927 6.53848 6.53767
2 6.54119 6.54037 4.35961
1 5.44879 5.44955 5.44878
1 7.63073 5.45133 7.62827
1 5.4501 7.63062 7.62839
1 7.62846 7.6284 5.44835
2 8.71613 4.361 4.36228
2 10.9 4.36113 6.54202
2 8.7167 6.53912 6.53817
2 10.9017 6.54044 4.35815
2 9.80749 5.44955 5.44859
2 11.9905 5.45123 7.6299
1 9.81003 7.62852 7.62904
2 12.148 7.83137 5.73555
2 13.0817 4.35982 4.35746
2 15.2612 4.35771 6.54203
2 13.081 6.53798 6.54048
2 15.2578 6.53977 4.35747
1 14.1701 5.44868 5.45123
2 16.3471 5.45 7.63039
1 14.1671 7.62838 7.63107
1 16.3502 7.62739 5.45064
2 0.00154048 8.72028 4.3604
2 2.182 8.71797 6.53997
2 0.00312163 10.8983 6.53689
2 2.1809 10.9012 4.36234
2 1.09212 9.80692 5.45042
2 3.27122 9.80925 7.63072
2 1.09236 11.9911 7.63183
2 3.05526 11.7323 5.51518
2 4.36117 8.71806 4.36057
2 6.5389 8.71663 6.54128
2 4.35855 10.8977 6.53859
2 6.54026 10.9 4.35807
1 5.44839 9.80974 5.44895
1 7.63103 9.81097 7.62952
2 5.45015 11.9914 7.6286
1 7.62735 11.9893 5.45047
2 8.72202 8.72004 4.36228
2 10.8969 8.71978 6.54006
2 8.71639 10.8986 6.54231
2 10.5699 10.9409 4.34107
2 9.81068 9.8089 5.45104
1 11.9904 9.80854 7.63104
2 9.80852 11.9889 7.62981
2 12.3084 11.9307 5.3617
2 13.0789 8.71655 4.35883
2 15.2591 8.71659 6.54194
2 13.0769 10.9007 6.53791
2 15.2595 10.8991 4.35744
2 14.1676 9.80716 5.44926
1 16.3485 9.80897 7.62756
1 14.1682 11.9901 7.62881
2 16.3462 11.9873 5.44875
2 17.4383 13.0778 4.35935
2 2.17774 13.0813 6.53722
2 0.000521777 15.2591 6.53781
2 2.1787 15.2564 4.36162
1 1.08869 14.1701 5.45143
1 3.26858 14.1698 7.62823
2 1.08791 16.3497 7.62758
1 3.26961 16.3477 5.44944
2 4.36074 13.0802 4.36161
2 6.53711 13.0791 6.53677
2 4.35857 15.2567 6.54137
2 6.53637 15.2602 4.36021
2 5.45037 14.1701 5.44821
2 7.63111 14.1679 7.63079
1 5.44862 16.3471 7.63033
1 7.62864 16.3467 5.4482
2 8.71034 13.1405 4.22531
2 11.0336 13.2893 6.69954
2 8.7166 15.2566 6.54222
2 10.8992 15.2596 4.35767
1 9.80859 14.1702 5.44794
2 11.9908 14.1699 7.62719
2 9.96408 16.2747 7.9577
1 11.989 16.3466 5.44929
2 13.0813 13.0801 4.36146
2 15.2592 13.0807 6.54191
2 13.1366 15.1174 6.71233
2 15.2582 15.2577 4.36108
2 14.1698 14.1704 5.44897
2 16.3462 14.1686 7.62726
1 14.1684 16.3499 7.62908
1 16.3497 16.3476 5.45089
2 0.00246465 17.4367 8.71859
2 2.18269 2.18181 8.71982
2 4.35745 17.4375 8.71972
2 6.54098 2.17983 8.71997
2 8.71883 17.4353 8.71951
2 10.7813 1.85417 8.5536
2 13.0776 0.00282125 8.71714
2 15.2569 2.17867 8.71859
2 0.00266324 4.36029 8.7168
2 2.25912 6.59218 8.40823
2 4.36148 4.36064 8.71813
2 6.54087 6.54077 8.71615
2 8.73179 4.0982 8.89396
2 10.9011 6.53881 8.72043
2 13.2057 4.44696 8.5553
2 15.2904 6.4554 8.64391
2 0.00238221 8.71656 8.71763
2 2.18022 10.8981 8.72179
2 4.35966 8.7178 8.72143
2 6.53828 10.8986 8.71648
2 8.56439 8.59048 8.56227
2 11.0778 11.0917 8.55958
2 13.0759 8.71933 8.72148
2 15.0442 10.548 8.87264
2 0.00241836 13.0779 8.71626
2 2.17963 15.2591 8.7178
2 4.35967 13.0771 8.71672
2 6.58184 15.2789 8.32112
2 8.72216 13.078 8.71865
2 10.9097 15.1262 8.68463
2 12.7572 12.9953 8.53747
2 15.2614 15.2555 8.72081
2 13.8707 10.0959 9.66845
2 13.1975 3.8264 16.2927