288
Atoms. Timestep: 0
2 0 0 0
2 2.1798 0 2.1798
2 0 2.1798 2.1798
2 2.1798 2.1798 0
1 1.0899 1.0899 1.0899
1 3.2697 1.0899 3.2697
1 1.0899 3.2697 3.2697
1 3.2697 3.2697 1.0899
2 4.3596 0 0
2 6.5394 0 2.1798
2 4.3596 2.1798 2.1798
2 6.5394 2.1798 0
1 5.4495 1.0899 1.0899
1 7.6293 1.0899 3.2697
1 5.4495 3.2697 3.2697
1 7.6293 3.2697 1.0899
2 8.7192 0 0
2 10.899 0 2.1798
2 8.7192 2.1798 2.1798
2 10.899 2.1798 0
1 9.8091 1.0899 1.0899
1 11.9889 1.0899 3.2697
1 9.8091 3.2697 3.2697
1 11.9889 3.2697 1.0899
2 13.0788 0 0
2 15.2586 0 2.1798
2 13.0788 2.1798 2.1798
2 15.2586 2.1798 0
1 14.1687 1.0899 1.0899
1 16.3485 1.0899 3.2697
1 14.1687 3.2697 3.2697
1 16.3485 3.2697 1.0899
2 0 4.3596 0
2 2.1798 4.3596 2.1798
2 0 6.5394 2.1798
2 2.1798 6.5394 0
1 1.0899 5.4495 1.0899
1 3.2697 5.4495 3.2697
1 1.0899 7.6293 3.2697
1 3.2697 7.6293 1.0899
2 4.3596 4.3596 0
2 6.5394 4.3596 2.1798
2 4.3596 6.5394 2.1798
2 6.5394 6.5394 0
1 5.4495 5.4495 1.0899
1 7.6293 5.4495 3.2697
1 5.4495 7.6293 3.2697
1 7.6293 7.6293 1.0899
2 8.7192 4.3596 0
2 10.899 4.3596 2.1798
2 8.7192 6.5394 2.1798
2 10.899 6.5394 0
1 9.8091 5.4495 1.0899
1 11.9889 5.4495 3.2697
1 9.8091 7.6293 3.2697
1 11.9889 7.6293 1.0899
2 13.0788 4.3596 0
2 15.2586 4.3596 2.1798
2 13.0788 6.5394 2.1798
2 15.2586 6.5394 0
1 14.1687 5.4495 1.0899
1 16.3485 5.4495 3.2697
1 14.1687 7.6293 3.2697
1 16.3485 7.6293 1.0899
2 0 8.7192 0
2 2.1798 8.7192 2.1798
2 0 10.899 2.1798
2 2.1798 10.899 0
1 1.0899 9.8091 1.0899
1 3.2697 9.8091 3.2697
1 1.0899 11.9889 3.2697
1 3.2697 11.9889 1.0899
2 4.3596 8.7192 0
2 6.5394 8.7192 2.1798
2 4.3596 10.899 2.1798
2 6.5394 10.899 0
1 5.4495 9.8091 1.0899
1 7.6293 9.8091 3.2697
1 5.4495 11.9889 3.2697
1 7.6293 11.9889 1.0899
2 8.7192 8.7192 0
2 10.899 8.7192 2.1798
2 8.7192 10.899 2.1798
2 10.899 10.899 0
1 9.8091 9.8091 1.0899
1 11.9889 9.8091 3.2697
1 9.8091 11.9889 3.2697
1 11.9889 11.9889 1.0899
2 13.0788 8.7192 0
2 15.2586 8.7192 2.1798
2 13.0788 10.899 2.1798
2 15.2586 10.899 0
1 14.1687 9.8091 1.0899
1 16.3485 9.8091 3.2697
1 14.1687 11.9889 3.2697
1 16.3485 11.9889 1.0899
2 0 13.0788 0
2 2.1798 13.0788 2.1798
2 0 15.2586 2.1798
2 2.1798 15.2586 0
1 1.0899 14.1687 1.0899
1 3.2697 14.1687 3.2697
1 1.0899 16.3485 3.2697
1 3.2697 16.3485 1.0899
2 4.3596 13.0788 0
2 6.5394 13.0788 2.1798
2 4.3596 15.2586 2.1798
2 6.5394 15.2586 0
1 5.4495 14.1687 1.0899
1 7.6293 14.1687 3.2697
1 5.4495 16.3485 3.2697
1 7.6293 16.3485 1.0899
2 8.7192 13.0788 0
2 10.899 13.0788 2.1798
2 8.7192 15.2586 2.1798
2 10.899 15.2586 0
1 9.8091 14.1687 1.0899
1 11.9889 14.1687 3.2697
1 9.8091 16.3485 3.2697
1 11.9889 16.3485 1.0899
2 13.0788 13.0788 0
2 15.2586 13.0788 2.1798
2 13.0788 15.2586 2.1798
2 15.2586 15.2586 0
1 14.1687 14.1687 1.0899
1 16.3485 14.1687 3.2697
1 14.1687 16.3485 3.2697
1 16.3485 16.3485 1.0899
2 0 0 4.3596
2 2.1798 0 6.5394
2 0 2.1798 6.5394
2 2.1798 2.1798 4.3596
1 1.0899 1.0899 5.4495
1 3.2697 1.0899 7.6293
1 1.0899 3.2697 7.6293
1 3.2697 3.2697 5.4495
2 4.3596 0 4.3596
2 6.5394 0 6.5394
2 4.3596 2.1798 6.5394
2 6.5394 2.1798 4.3596
1 5.4495 1.0899 5.4495
1 7.6293 1.0899 7.6293
1 5.4495 3.2697 7.6293
1 7.6293 3.2697 5.4495
2 8.7192 0 4.3596
2 10.899 0 6.5394
2 8.7192 2.1798 6.5394
2 10.899 2.1798 4.3596
1 9.8091 1.0899 5.4495
1 11.9889 1.0899 7.6293
1 9.8091 3.2697 7.6293
1 11.9889 3.2697 5.4495
2 13.0788 0 4.3596
2 15.2586 0 6.5394
2 13.0788 2.1798 6.5394
2 15.2586 2.1798 4.3596
1 14.1687 1.0899 5.4495
1 16.3485 1.0899 7.6293
1 14.1687 3.2697 7.6293
1 16.3485 3.2697 5.4495
2 0 4.3596 4.3596
2 2.1798 4.3596 6.5394
2 0 6.5394 6.5394
2 2.1798 6.5394 4.3596
1 1.0899 5.4495 5.4495
1 3.2697 5.4495 7.6293
1 1.0899 7.6293 7.6293
1 3.2697 7.6293 5.4495
2 4.3596 4.3596 4.3596
2 6.5394 4.3596 6.5394
2 4.3596 6.5394 6.5394
2 6.5394 6.5394 4.3596
1 5.4495 5.4495 5.4495
1 7.6293 5.4495 7.6293
1 5.4495 7.6293 7.6293
1 7.6293 7.6293 5.4495
2 8.7192 4.3596 4.3596
2 10.899 4.3596 6.5394
2 8.7192 6.5394 6.5394
2 10.899 6.5394 4.3596
1 9.8091 5.4495 5.4495
1 11.9889 5.4495 7.6293
1 9.8091 7.6293 7.6293
1 11.9889 7.6293 5.4495
2 13.0788 4.3596 4.3596
2 15.2586 4.3596 6.5394
2 13.0788 6.5394 6.5394
2 15.2586 6.5394 4.3596
1 14.1687 5.4495 5.4495
1 16.3485 5.4495 7.6293
1 14.1687 7.6293 7.6293
1 16.3485 7.6293 5.4495
2 0 8.7192 4.3596
2 2.1798 8.7192 6.5394
2 0 10.899 6.5394
2 2.1798 10.899 4.3596
1 1.0899 9.8091 5.4495
1 3.2697 9.8091 7.6293
1 1.0899 11.9889 7.6293
1 3.2697 11.9889 5.4495
2 4.3596 8.7192 4.3596
2 6.5394 8.7192 6.5394
2 4.3596 10.899 6.5394
2 6.5394 10.899 4.3596
1 5.4495 9.8091 5.4495
1 7.6293 9.8091 7.6293
1 5.4495 11.9889 7.6293
1 7.6293 11.9889 5.4495
2 8.7192 8.7192 4.3596
2 10.899 8.7192 6.5394
2 8.7192 10.899 6.5394
2 10.899 10.899 4.3596
1 9.8091 9.8091 5.4495
1 11.9889 9.8091 7.6293
1 9.8091 11.9889 7.6293
1 11.9889 11.9889 5.4495
2 13.0788 8.7192 4.3596
2 15.2586 8.7192 6.5394
2 13.0788 10.899 6.5394
2 15.2586 10.899 4.3596
1 14.1687 9.8091 5.4495
1 16.3485 9.8091 7.6293
1 14.1687 11.9889 7.6293
1 16.3485 11.9889 5.4495
2 0 13.0788 4.3596
2 2.1798 13.0788 6.5394
2 0 15.2586 6.5394
2 2.1798 15.2586 4.3596
1 1.0899 14.1687 5.4495
1 3.2697 14.1687 7.6293
1 1.0899 16.3485 7.6293
1 3.2697 16.3485 5.4495
2 4.3596 13.0788 4.3596
2 6.5394 13.0788 6.5394
2 4.3596 15.2586 6.5394
2 6.5394 15.2586 4.3596
1 5.4495 14.1687 5.4495
1 7.6293 14.1687 7.6293
1 5.4495 16.3485 7.6293
1 7.6293 16.3485 5.4495
2 8.7192 13.0788 4.3596
2 10.899 13.0788 6.5394
2 8.7192 15.2586 6.5394
2 10.899 15.2586 4.3596
1 9.8091 14.1687 5.4495
1 11.9889 14.1687 7.6293
1 9.8091 16.3485 7.6293
1 11.9889 16.3485 5.4495
2 13.0788 13.0788 4.3596
2 15.2586 13.0788 6.5394
2 13.0788 15.2586 6.5394
2 15.2586 15.2586 4.3596
1 14.1687 14.1687 5.4495
1 16.3485 14.1687 7.6293
1 14.1687 16.3485 7.6293
1 16.3485 16.3485 5.4495
2 0 0 8.7192
2 2.1798 2.1798 8.7192
2 4.3596 0 8.7192
2 6.5394 2.1798 8.7192
2 8.7192 0 8.7192
2 10.899 2.1798 8.7192
2 13.0788 0 8.7192
2 15.2586 2.1798 8.7192
2 0 4.3596 8.7192
2 2.1798 6.5394 8.7192
2 4.3596 4.3596 8.7192
2 6.5394 6.5394 8.7192
2 8.7192 4.3596 8.7192
2 10.899 6.5394 8.7192
2 13.0788 4.3596 8.7192
2 15.2586 6.5394 8.7192
2 0 8.7192 8.7192
2 2.1798 10.899 8.7192
2 4.3596 8.7192 8.7192
2 6.5394 10.899 8.7192
2 8.7192 8.7192 8.7192
2 10.899 10.899 8.7192
2 13.0788 8.7192 8.7192
2 15.2586 10.899 8.7192
2 0 13.0788 8.7192
2 2.1798 15.2586 8.7192
2 4.3596 13.0788 8.7192
2 6.5394 15.2586 8.7192
2 8.7192 13.0788 8.7192
2 10.899 15.2586 8.7192
2 13.0788 13.0788 8.7192
2 15.2586 15.2586 8.7192
301
Atoms. Timestep: 1
2 0 0 0
2 2.1798 0 2.1798
2 0 2.1798 2.1798
2 2.1798 2.1798 0
2 1.0899 1.0899 1.0899
2 3.2697 1.0899 3.2697
2 1.0899 3.2697 3.2697
2 3.2697 3.2697 1.0899
2 4.3596 0 0
2 6.5394 0 2.1798
2 4.3596 2.1798 2.1798
2 6.5394 2.1798 0
2 5.4495 1.0899 1.0899
2 7.6293 1.0899 3.2697
1 5.4495 3.2697 3.2697
1 7.6293 3.2697 1.0899
2 8.7192 0 0
2 10.899 0 2.1798
2 8.7192 2.1798 2.1798
2 10.899 2.1798 0
1 9.8091 1.0899 1.0899
2 11.9889 1.0899 3.2697
1 9.8091 3.2697 3.2697
1 11.9889 3.2697 1.0899
2 13.0788 0 0
2 15.2586 0 2.1798
2 13.0788 2.1798 2.1798
2 15.2586 2.1798 0
2 14.1687 1.0899 1.0899
1 16.3485 1.0899 3.2697
1 14.1687 3.2697 3.2697
2 16.3485 3.2697 1.0899
2 0 4.3596 0
2 2.1798 4.3596 2.1798
2 0 6.5394 2.1798
2 2.1798 6.5394 0
2 1.0899 5.4495 1.0899
2 3.2697 5.4495 3.2697
1 1.0899 7.6293 3.2697
1 3.2697 7.6293 1.0899
2 4.3596 4.3596 0
2 6.5394 4.3596 2.1798
2 4.3596 6.5394 2.1798
2 6.5394 6.5394 0
2 5.4495 5.4495 1.0899
1 7.6293 5.4495 3.2697
2 5.4495 7.6293 3.2697
2 7.6293 7.6293 1.0899
2 8.7192 4.3596 0
2 10.899 4.3596 2.1798
2 8.7192 6.5394 2.1798
2 10.899 6.5394 0
2 9.8091 5.4495 1.0899
2 11.9889 5.4495 3.2697
2 9.8091 7.6293 3.2697
1 11.9889 7.6293 1.0899
2 13.0788 4.3596 0
2 15.2586 4.3596 2.1798
2 13.0788 6.5394 2.1798
2 15.2586 6.5394 0
2 14.1687 5.4495 1.0899
1 16.3485 5.4495 3.2697
2 14.1687 7.6293 3.2697
1 16.3485 7.6293 1.0899
2 0 8.7192 0
2 2.1798 8.7192 2.1798
2 0 10.899 2.1798
2 2.1798 10.899 0
1 1.0899 9.8091 1.0899
2 3.2697 9.8091 3.2697
2 1.0899 11.9889 3.2697
2 3.2697 11.9889 1.0899
2 4.3596 8.7192 0
2 6.5394 8.7192 2.1798
2 4.3596 10.899 2.1798
2 6.5394 10.899 0
2 5.4495 9.8091 1.0899
2 7.6293 9.8091 3.2697
2 5.4495 11.9889 3.2697
2 7.6293 11.9889 1.0899
2 8.7192 8.7192 0
2 10.899 8.7192 2.1798
2 8.7192 10.899 2.1798
2 10.899 10.899 0
2 9.8091 9.8091 1.0899
2 11.9889 9.8091 3.2697
1 9.8091 11.9889 3.2697
2 11.9889 11.9889 1.0899
2 13.0788 8.7192 0
2 15.2586 8.7192 2.1798
2 13.0788 10.899 2.1798
2 15.2586 10.899 0
1 14.1687 9.8091 1.0899
1 16.3485 9.8091 3.2697
2 14.1687 11.9889 3.2697
2 16.3485 11.9889 1.0899
2 0 13.0788 0
2 2.1798 13.0788 2.1798
2 0 15.2586 2.1798
2 2.1798 15.2586 0
2 1.0899 14.1687 1.0899
1 3.2697 14.1687 3.2697
2 1.0899 16.3485 3.2697
1 3.2697 16.3485 1.0899
2 4.3596 13.0788 0
2 6.5394 13.0788 2.1798
2 4.3596 15.2586 2.1798
2 6.5394 15.2586 0
1 5.4495 14.1687 1.0899
2 7.6293 14.1687 3.2697
2 5.4495 16.3485 3.2697
1 7.6293 16.3485 1.0899
2 8.7192 13.0788 0
2 10.899 13.0788 2.1798
2 8.7192 15.2586 2.1798
2 10.899 15.2586 0
1 9.8091 14.1687 1.0899
2 11.9889 14.1687 3.2697
2 9.8091 16.3485 3.2697
2 11.9889 16.3485 1.0899
2 13.0788 13.0788 0
2 15.2586 13.0788 2.1798
2 13.0788 15.2586 2.1798
2 15.2586 15.2586 0
1 14.1687 14.1687 1.0899
2 16.3485 14.1687 3.2697
2 14.1687 16.3485 3.2697
2 16.3485 16.3485 1.0899
2 0 0 4.3596
2 2.1798 0 6.5394
2 0 2.1798 6.5394
2 2.1798 2.1798 4.3596
1 1.0899 1.0899 5.4495
1 3.2697 1.0899 7.6293
2 1.0899 3.2697 7.6293
2 3.2697 3.2697 5.4495
2 4.3596 0 4.3596
2 6.5394 0 6.5394
2 4.3596 2.1798 6.5394
2 6.5394 2.1798 4.3596
2 5.4495 1.0899 5.4495
2 7.6293 1.0899 7.6293
1 5.4495 3.2697 7.6293
1 7.6293 3.2697 5.4495
2 8.7192 0 4.3596
2 10.899 0 6.5394
2 8.7192 2.1798 6.5394
2 10.899 2.1798 4.3596
1 9.8091 1.0899 5.4495
2 11.9889 1.0899 7.6293
2 9.8091 3.2697 7.6293
2 11.9889 3.2697 5.4495
2 13.0788 0 4.3596
2 15.2586 0 6.5394
2 13.0788 2.1798 6.5394
2 15.2586 2.1798 4.3596
1 14.1687 1.0899 5.4495
1 16.3485 1.0899 7.6293
2 14.1687 3.2697 7.6293
2 16.3485 3.2697 5.4495
2 0 4.3596 4.3596
2 2.1798 4.3596 6.5394
2 0 6.5394 6.5394
2 2.1798 6.5394 4.3596
1 1.0899 5.4495 5.4495
2 3.2697 5.4495 7.6293
2 1.0899 7.6293 7.6293
2 3.2697 7.6293 5.4495
2 4.3596 4.3596 4.3596
2 6.5394 4.3596 6.5394
2 4.3596 6.5394 6.5394
2 6.5394 6.5394 4.3596
1 5.4495 5.4495 5.4495
2 7.6293 5.4495 7.6293
1 5.4495 7.6293 7.6293
1 7.6293 7.6293 5.4495
2 8.7192 4.3596 4.3596
2 10.899 4.3596 6.5394
2 8.7192 6.5394 6.5394
2 10.899 6.5394 4.3596
1 9.8091 5.4495 5.4495
1 11.9889 5.4495 7.6293
2 9.8091 7.6293 7.6293
2 11.9889 7.6293 5.4495
2 13.0788 4.3596 4.3596
2 15.2586 4.3596 6.5394
2 13.0788 6.5394 6.5394
2 15.2586 6.5394 4.3596
2 14.1687 5.4495 5.4495
1 16.3485 5.4495 7.6293
2 14.1687 7.6293 7.6293
1 16.3485 7.6293 5.4495
2 0 8.7192 4.3596
2 2.1798 8.7192 6.5394
2 0 10.899 6.5394
2 2.1798 10.899 4.3596
2 1.0899 9.8091 5.4495
1 3.2697 9.8091 7.6293
2 1.0899 11.9889 7.6293
2 3.2697 11.9889 5.4495
2 4.3596 8.7192 4.3596
2 6.5394 8.7192 6.5394
2 4.3596 10.899 6.5394
2 6.5394 10.899 4.3596
1 5.4495 9.8091 5.4495
2 7.6293 9.8091 7.6293
2 5.4495 11.9889 7.6293
2 7.6293 11.9889 5.4495
2 8.7192 8.7192 4.3596
2 10.899 8.7192 6.5394
2 8.7192 10.899 6.5394
2 10.899 10.899 4.3596
2 9.8091 9.8091 5.4495
1 11.9889 9.8091 7.6293
1 9.8091 11.9889 7.6293
2 11.9889 11.9889 5.4495
2 13.0788 8.7192 4.3596
2 15.2586 8.7192 6.5394
2 13.0788 10.899 6.5394
2 15.2586 10.899 4.3596
1 14.1687 9.8091 5.4495
2 16.3485 9.8091 7.6293
1 14.1687 11.9889 7.6293
1 16.3485 11.9889 5.4495
2 0 13.0788 4.3596
2 2.1798 13.0788 6.5394
2 0 15.2586 6.5394
2 2.1798 15.2586 4.3596
2 1.0899 14.1687 5.4495
2 3.2697 14.1687 7.6293
2 1.0899 16.3485 7.6293
1 3.2697 16.3485 5.4495
2 4.3596 13.0788 4.3596
2 6.5394 13.0788 6.5394
2 4.3596 15.2586 6.5394
2 6.5394 15.2586 4.3596
1 5.4495 14.1687 5.4495
2 7.6293 14.1687 7.6293
2 5.4495 16.3485 7.6293
1 7.6293 16.3485 5.4495
2 8.7192 13.0788 4.3596
2 10.899 13.0788 6.5394
2 8.7192 15.2586 6.5394
2 10.899 15.2586 4.3596
2 9.8091 14.1687 5.4495
2 11.9889 14.1687 7.6293
2 9.8091 16.3485 7.6293
1 11.9889 16.3485 5.4495
2 13.0788 13.0788 4.3596
2 15.2586 13.0788 6.5394
2 13.0788 15.2586 6.5394
2 15.2586 15.2586 4.3596
2 14.1687 14.1687 5.4495
2 16.3485 14.1687 7.6293
2 14.1687 16.3485 7.6293
2 16.3485 16.3485 5.4495
2 0 0 8.7192
2 2.1798 2.1798 8.7192
2 4.3596 0 8.7192
2 6.5394 2.1798 8.7192
2 8.7192 0 8.7192
2 10.899 2.1798 8.7192
2 13.0788 0 8.7192
2 15.2586 2.1798 8.7192
2 0 4.3596 8.7192
2 2.1798 6.5394 8.7192
2 4.3596 4.3596 8.7192
2 6.5394 6.5394 8.7192
2 8.7192 4.3596 8.7192
2 10.899 6.5394 8.7192
2 13.0788 4.3596 8.7192
2 15.2586 6.5394 8.7192
2 0 8.7192 8.7192
2 2.1798 10.899 8.7192
2 4.3596 8.7192 8.7192
2 6.5394 10.899 8.7192
2 8.7192 8.7192 8.7192
2 10.899 10.899 8.7192
2 13.0788 8.7192 8.7192
2 15.2586 10.899 8.7192
2 0 13.0788 8.7192
2 2.1798 15.2586 8.7192
2 4.3596 13.0788 8.7192
2 6.5394 15.2586 8.7192
2 8.7192 13.0788 8.7192
2 10.899 15.2586 8.7192
2 13.0788 13.0788 8.7192
2 15.2586 15.2586 8.7192
2 13.8729 10.0971 9.66929
2 2.78571 14.7313 16.3825
2 6.56377 2.01901 15.8968
2 11.3595 2.82589 10.0182
2 7.5602 8.04171 9.48672
2 6.30647 2.21894 10.365
2 13.3344 10.9688 10.9952
2 6.40162 14.5203 10.0208
2 15.3139 6.59954 10.2148
2 2.56058 15.1501 10.0875
2 5.6806 16.077 16.2292
2 1.90432 6.45948 10.4595
2 1.88255 6.77523 16.0118
301
Atoms. Timestep: 2
2 0 0 0
2 2.1798 0 2.1798
2 0 2.1798 2.1798
2 2.1798 2.1798 0
2 1.0899 1.0899 1.0899
2 3.2697 1.0899 3.2697
2 1.0899 3.2697 3.2697
2 3.2697 3.2697 1.0899
2 4.3596 0 0
2 6.5394 0 2.1798
2 4.3596 2.1798 2.1798
2 6.5394 2.1798 0
2 5.4495 1.0899 1.0899
2 7.6293 1.0899 3.2697
1 5.4495 3.2697 3.2697
1 7.6293 3.2697 1.0899
2 8.7192 0 0
2 10.899 0 2.1798
2 8.7192 2.1798 2.1798
2 10.899 2.1798 0
1 9.8091 1.0899 1.0899
2 11.9889 1.0899 3.2697
1 9.8091 3.2697 3.2697
1 11.9889 3.2697 1.0899
2 13.0788 0 0
2 15.2586 0 2.1798
2 13.0788 2.1798 2.1798
2 15.2586 2.1798 0
2 14.1687 1.0899 1.0899
1 16.3485 1.0899 3.2697
1 14.1687 3.2697 3.2697
2 16.3485 3.2697 1.0899
2 0 4.3596 0
2 2.1798 4.3596 2.1798
2 0 6.5394 2.1798
2 2.1798 6.5394 0
2 1.0899 5.4495 1.0899
2 3.2697 5.4495 3.2697
1 1.0899 7.6293 3.2697
1 3.2697 7.6293 1.0899
2 4.3596 4.3596 0
2 6.5394 4.3596 2.1798
2 4.3596 6.5394 2.1798
2 6.5394 6.5394 0
2 5.4495 5.4495 1.0899
1 7.6293 5.4495 3.2697
2 5.4495 7.6293 3.2697
2 7.6293 7.6293 1.0899
2 8.7192 4.3596 0
2 10.899 4.3596 2.1798
2 8.7192 6.5394 2.1798
2 10.899 6.5394 0
2 9.8091 5.4495 1.0899
2 11.9889 5.4495 3.2697
2 9.8091 7.6293 3.2697
1 11.9889 7.6293 1.0899
2 13.0788 4.3596 0
2 15.2586 4.3596 2.1798
2 13.0788 6.5394 2.1798
2 15.2586 6.5394 0
2 14.1687 5.4495 1.0899
1 16.3485 5.4495 3.2697
2 14.1687 7.6293 3.2697
1 16.3485 7.6293 1.0899
2 0 8.7192 0
2 2.1798 8.7192 2.1798
2 0 10.899 2.1798
2 2.1798 10.899 0
1 1.0899 9.8091 1.0899
2 3.2697 9.8091 3.2697
2 1.0899 11.9889 3.2697
2 3.2697 11.9889 1.0899
2 4.3596 8.7192 0
2 6.5394 8.7192 2.1798
2 4.3596 10.899 2.1798
2 6.5394 10.899 0
2 5.4495 9.8091 1.0899
2 7.6293 9.8091 3.2697
2 5.4495 11.9889 3.2697
2 7.6293 11.9889 1.0899
2 8.7192 8.7192 0
2 10.899 8.7192 2.1798
2 8.7192 10.899 2.1798
2 10.899 10.899 0
2 9.8091 9.8091 1.0899
2 11.9889 9.8091 3.2697
1 9.8091 11.9889 3.2697
2 11.9889 11.9889 1.0899
2 13.0788 8.7192 0
2 15.2586 8.7192 2.1798
2 13.0788 10.899 2.1798
2 15.2586 10.899 0
1 14.1687 9.8091 1.0899
1 16.3485 9.8091 3.2697
2 14.1687 11.9889 3.2697
2 16.3485 11.9889 1.0899
2 0 13.0788 0
2 2.1798 13.0788 2.1798
2 0 15.2586 2.1798
2 2.1798 15.2586 0
2 1.0899 14.1687 1.0899
1 3.2697 14.1687 3.2697
2 1.0899 16.3485 3.2697
1 3.2697 16.3485 1.0899
2 4.3596 13.0788 0
2 6.5394 13.0788 2.1798
2 4.3596 15.2586 2.1798
2 6.5394 15.2586 0
1 5.4495 14.1687 1.0899
2 7.6293 14.1687 3.2697
2 5.4495 16.3485 3.2697
1 7.6293 16.3485 1.0899
2 8.7192 13.0788 0
2 10.899 13.0788 2.1798
2 8.7192 15.2586 2.1798
2 10.899 15.2586 0
1 9.8091 14.1687 1.0899
2 11.9889 14.1687 3.2697
2 9.8091 16.3485 3.2697
2 11.9889 16.3485 1.0899
2 13.0788 13.0788 0
2 15.2586 13.0788 2.1798
2 13.0788 15.2586 2.1798
2 15.2586 15.2586 0
1 14.1687 14.1687 1.0899
2 16.3485 14.1687 3.2697
2 14.1687 16.3485 3.2697
2 16.3485 16.3485 1.0899
2 0 0 4.3596
2 2.1798 0 6.5394
2 0 2.1798 6.5394
2 2.1798 2.1798 4.3596
1 1.0899 1.0899 5.4495
1 3.2697 1.0899 7.6293
2 1.0899 3.2697 7.6293
2 3.2697 3.2697 5.4495
2 4.3596 0 4.3596
2 6.5394 0 6.5394
2 4.3596 2.1798 6.5394
2 6.5394 2.1798 4.3596
2 5.4495 1.0899 5.4495
2 7.6293 1.0899 7.6293
1 5.4495 3.2697 7.6293
1 7.6293 3.2697 5.4495
2 8.7192 0 4.3596
2 10.899 0 6.5394
2 8.7192 2.1798 6.5394
2 10.899 2.1798 4.3596
1 9.8091 1.0899 5.4495
2 11.9889 1.0899 7.6293
2 9.8091 3.2697 7.6293
2 11.9889 3.2697 5.4495
2 13.0788 0 4.3596
2 15.2586 0 6.5394
2 13.0788 2.1798 6.5394
2 15.2586 2.1798 4.3596
1 14.1687 1.0899 5.4495
1 16.3485 1.0899 7.6293
2 14.1687 3.2697 7.6293
2 16.3485 3.2697 5.4495
2 0 4.3596 4.3596
2 2.1798 4.3596 6.5394
2 0 6.5394 6.5394
2 2.1798 6.5394 4.3596
1 1.0899 5.4495 5.4495
2 3.2697 5.4495 7.6293
2 1.0899 7.6293 7.6293
2 3.2697 7.6293 5.4495
2 4.3596 4.3596 4.3596
2 6.5394 4.3596 6.5394
2 4.3596 6.5394 6.5394
2 6.5394 6.5394 4.3596
1 5.4495 5.4495 5.4495
2 7.6293 5.4495 7.6293
1 5.4495 7.6293 7.6293
1 7.6293 7.6293 5.4495
2 8.7192 4.3596 4.3596
2 10.899 4.3596 6.5394
2 8.7192 6.5394 6.5394
2 10.899 6.5394 4.3596
1 9.8091 5.4495 5.4495
1 11.9889 5.4495 7.6293
2 9.8091 7.6293 7.6293
2 11.9889 7.6293 5.4495
2 13.0788 4.3596 4.3596
2 15.2586 4.3596 6.5394
2 13.0788 6.5394 6.5394
2 15.2586 6.5394 4.3596
2 14.1687 5.4495 5.4495
1 16.3485 5.4495 7.6293
2 14.1687 7.6293 7.6293
1 16.3485 7.6293 5.4495
2 0 8.7192 4.3596
2 2.1798 8.7192 6.5394
2 0 10.899 6.5394
2 2.1798 10.899 4.3596
2 1.0899 9.8091 5.4495
1 3.2697 9.8091 7.6293
2 1.0899 11.9889 7.6293
2 3.2697 11.9889 5.4495
2 4.3596 8.7192 4.3596
2 6.5394 8.7192 6.5394
2 4.3596 10.899 6.5394
2 6.5394 10.899 4.3596
1 5.4495 9.8091 5.4495
2 7.6293 9.8091 7.6293
2 5.4495 11.9889 7.6293
2 7.6293 11.9889 5.4495
2 8.7192 8.7192 4.3596
2 10.899 8.7192 6.5394
2 8.7192 10.899 6.5394
2 10.899 10.899 4.3596
2 9.8091 9.8091 5.4495
1 11.9889 9.8091 7.6293
1 9.8091 11.9889 7.6293
2 11.9889 11.9889 5.4495
2 13.0788 8.7192 4.3596
2 15.2586 8.7192 6.5394
2 13.0788 10.899 6.5394
2 15.2586 10.899 4.3596
1 14.1687 9.8091 5.4495
2 16.3485 9.8091 7.6293
1 14.1687 11.9889 7.6293
1 16.3485 11.9889 5.4495
2 0 13.0788 4.3596
2 2.1798 13.0788 6.5394
2 0 15.2586 6.5394
2 2.1798 15.2586 4.3596
2 1.0899 14.1687 5.4495
2 3.2697 14.1687 7.6293
2 1.0899 16.3485 7.6293
1 3.2697 16.3485 5.4495
2 4.3596 13.0788 4.3596
2 6.5394 13.0788 6.5394
2 4.3596 15.2586 6.5394
2 6.5394 15.2586 4.3596
1 5.4495 14.1687 5.4495
2 7.6293 14.1687 7.6293
2 5.4495 16.3485 7.6293
1 7.6293 16.3485 5.4495
2 8.7192 13.0788 4.3596
2 10.899 13.0788 6.5394
2 8.7192 15.2586 6.5394
2 10.899 15.2586 4.3596
2 9.8091 14.1687 5.4495
2 11.9889 14.1687 7.6293
2 9.8091 16.3485 7.6293
1 11.9889 16.3485 5.4495
2 13.0788 13.0788 4.3596
2 15.2586 13.0788 6.5394
2 13.0788 15.2586 6.5394
2 15.2586 15.2586 4.3596
2 14.1687 14.1687 5.4495
2 16.3485 14.1687 7.6293
2 14.1687 16.3485 7.6293
2 16.3485 16.3485 5.4495
2 0 0 8.7192
2 2.1798 2.1798 8.7192
2 4.3596 0 8.7192
2 6.5394 2.1798 8.7192
2 8.7192 0 8.7192
2 10.899 2.1798 8.7192
2 13.0788 0 8.7192
2 15.2586 2.1798 8.7192
2 0 4.3596 8.7192
2 2.1798 6.5394 8.7192
2 4.3596 4.3596 8.7192
2 6.5394 6.5394 8.7192
2 8.7192 4.3596 8.7192
2 10.899 6.5394 8.7192
2 13.0788 4.3596 8.7192
2 15.2586 6.5394 8.7192
2 0 8.7192 8.7192
2 2.1798 10.899 8.7192
2 4.3596 8.7192 8.7192
2 6.5394 10.899 8.7192
2 8.7192 8.7192 8.7192
2 10.899 10.899 8.7192
2 13.0788 8.7192 8.7192
2 15.2586 10.899 8.7192
2 0 13.0788 8.7192
2 2.1798 15.2586 8.7192
2 4.3596 13.0788 8.7192
2 6.5394 15.2586 8.7192
2 8.7192 13.0788 8.7192
2 10.899 15.2586 8.7192
2 13.0788 13.0788 8.7192
2 15.2586 15.2586 8.7192
2 13.8729 10.0971 9.66929
2 2.78571 14.7313 16.3825
2 6.56377 2.01901 15.8968
2 11.3595 2.82589 10.0182
2 7.5602 8.04171 9.48672
2 6.30647 2.21894 10.365
2 13.3344 10.9688 10.9952
2 6.40162 14.5203 10.0208
2 15.3139 6.59954 10.2148
2 2.56058 15.1501 10.0875
2 5.6806 16.077 16.2292
2 1.90432 6.45948 10.4595
2 1.88255 6.77523 16.0118
301
Atoms. Timestep: 3
2 0 0 0
2 2.1798 0 2.1798
2 0 2.1798 2.1798
2 2.1798 2.1798 0
2 1.0899 1.0899 1.0899
2 3.2697 1.0899 3.2697
2 1.0899 3.2697 3.2697
2 3.2697 3.2697 1.0899
2 4.3596 0 0
2 6.5394 0 2.1798
2 4.3596 2.1798 2.1798
2 6.5394 2.1798 0
2 5.4495 1.0899 1.0899
2 7.6293 1.0899 3.2697
1 5.4495 3.2697 3.2697
1 7.6293 3.2697 1.0899
2 8.7192 0 0
2 10.899 0 2.1798
2 8.7192 2.1798 2.1798
2 10.899 2.1798 0
1 9.8091 1.0899 1.0899
2 11.9889 1.0899 3.2697
1 9.8091 3.2697 3.2697
1 11.9889 3.2697 1.0899
2 13.0788 0 0
2 15.2586 0 2.1798
2 13.0788 2.1798 2.1798
2 15.2586 2.1798 0
2 14.1687 1.0899 1.0899
1 16.3485 1.0899 3.2697
1 14.1687 3.2697 3.2697
2 16.3485 3.2697 1.0899
2 0 4.3596 0
2 2.1798 4.3596 2.1798
2 0 6.5394 2.1798
2 2.1798 6.5394 0
2 1.0899 5.4495 1.0899
2 3.2697 5.4495 3.2697
1 1.0899 7.6293 3.2697
1 3.2697 7.6293 1.0899
2 4.3596 4.3596 0
2 6.5394 4.3596 2.1798
2 4.3596 6.5394 2.1798
2 6.5394 6.5394 0
2 5.4495 5.4495 1.0899
1 7.6293 5.4495 3.2697
2 5.4495 7.6293 3.2697
2 7.6293 7.6293 1.0899
2 8.7192 4.3596 0
2 10.899 4.3596 2.1798
2 8.7192 6.5394 2.1798
2 10.899 6.5394 0
2 9.8091 5.4495 1.0899
2 11.9889 5.4495 3.2697
2 9.8091 7.6293 3.2697
1 11.9889 7.6293 1.0899
2 13.0788 4.3596 0
2 15.2586 4.3596 2.1798
2 13.0788 6.5394 2.1798
2 15.2586 6.5394 0
2 14.1687 5.4495 1.0899
1 16.3485 5.4495 3.2697
2 14.1687 7.6293 3.2697
1 16.3485 7.6293 1.0899
2 0 8.7192 0
2 2.1798 8.7192 2.1798
2 0 10.899 2.1798
2 2.1798 10.899 0
1 1.0899 9.8091 1.0899
2 3.2697 9.8091 3.2697
2 1.0899 11.9889 3.2697
2 3.2697 11.9889 1.0899
2 4.3596 8.7192 0
2 6.5394 8.7192 2.1798
2 4.3596 10.899 2.1798
2 6.5394 10.899 0
2 5.4495 9.8091 1.0899
2 7.6293 9.8091 3.2697
2 5.4495 11.9889 3.2697
2 7.6293 11.9889 1.0899
2 8.7192 8.7192 0
2 10.899 8.7192 2.1798
2 8.7192 10.899 2.1798
2 10.899 10.899 0
2 9.8091 9.8091 1.0899
2 11.9889 9.8091 3.2697
1 9.8091 11.9889 3.2697
2 11.9889 11.9889 1.0899
2 13.0788 8.7192 0
2 15.2586 8.7192 2.1798
2 13.0788 10.899 2.1798
2 15.2586 10.899 0
1 14.1687 9.8091 1.0899
1 16.3485 9.8091 3.2697
2 14.1687 11.9889 3.2697
2 16.3485 11.9889 1.0899
2 0 13.0788 0
2 2.1798 13.0788 2.1798
2 0 15.2586 2.1798
2 2.1798 15.2586 0
2 1.0899 14.1687 1.0899
1 3.2697 14.1687 3.2697
2 1.0899 16.3485 3.2697
1 3.2697 16.3485 1.0899
2 4.3596 13.0788 0
2 6.5394 13.0788 2.1798
2 4.3596 15.2586 2.1798
2 6.5394 15.2586 0
1 5.4495 14.1687 1.0899
2 7.6293 14.1687 3.2697
2 5.4495 16.3485 3.2697
1 7.6293 16.3485 1.0899
2 8.7192 13.0788 0
2 10.899 13.0788 2.1798
2 8.7192 15.2586 2.1798
2 10.899 15.2586 0
1 9.8091 14.1687 1.0899
2 11.9889 14.1687 3.2697
2 9.8091 16.3485 3.2697
2 11.9889 16.3485 1.0899
2 13.0788 13.0788 0
2 15.2586 13.0788 2.1798
2 13.0788 15.2586 2.1798
2 15.2586 15.2586 0
1 14.1687 14.1687 1.0899
2 16.3485 14.1687 3.2697
2 14.1687 16.3485 3.2697
2 16.3485 16.3485 1.0899
2 0 0 4.3596
2 2.1798 0 6.5394
2 0 2.1798 6.5394
2 2.1798 2.1798 4.3596
1 1.0899 1.0899 5.4495
1 3.2697 1.0899 7.6293
2 1.0899 3.2697 7.6293
2 3.2697 3.2697 5.4495
2 4.3596 0 4.3596
2 6.5394 0 6.5394
2 4.3596 2.1798 6.5394
2 6.5394 2.1798 4.3596
2 5.4495 1.0899 5.4495
2 7.6293 1.0899 7.6293
1 5.4495 3.2697 7.6293
1 7.6293 3.2697 5.4495
2 8.7192 0 4.3596
2 10.899 0 6.5394
2 8.7192 2.1798 6.5394
2 10.899 2.1798 4.3596
1 9.8091 1.0899 5.4495
2 11.9889 1.0899 7.6293
2 9.8091 3.2697 7.6293
2 11.9889 3.2697 5.4495
2 13.0788 0 4.3596
2 15.2586 0 6.5394
2 13.0788 2.1798 6.5394
2 15.2586 2.1798 4.3596
1 14.1687 1.0899 5.4495
1 16.3485 1.0899 7.6293
2 14.1687 3.2697 7.6293
2 16.3485 3.2697 5.4495
2 0 4.3596 4.3596
2 2.1798 4.3596 6.5394
2 0 6.5394 6.5394
2 2.1798 6.5394 4.3596
1 1.0899 5.4495 5.4495
2 3.2697 5.4495 7.6293
2 1.0899 7.6293 7.6293
2 3.2697 7.6293 5.4495
2 4.3596 4.3596 4.3596
2 6.5394 4.3596 6.5394
2 4.3596 6.5394 6.5394
2 6.5394 6.5394 4.3596
1 5.4495 5.4495 5.4495
2 7.6293 5.4495 7.6293
1 5.4495 7.6293 7.6293
1 7.6293 7.6293 5.4495
2 8.7192 4.3596 4.3596
2 10.899 4.3596 6.5394
2 8.7192 6.5394 6.5394
2 10.899 6.5394 4.3596
1 9.8091 5.4495 5.4495
1 11.9889 5.4495 7.6293
2 9.8091 7.6293 7.6293
2 11.9889 7.6293 5.4495
2 13.0788 4.3596 4.3596
2 15.2586 4.3596 6.5394
2 13.0788 6.5394 6.5394
2 15.2586 6.5394 4.3596
2 14.1687 5.4495 5.4495
1 16.3485 5.4495 7.6293
2 14.1687 7.6293 7.6293
1 16.3485 7.6293 5.4495
2 0 8.7192 4.3596
2 2.1798 8.7192 6.5394
2 0 10.899 6.5394
2 2.1798 10.899 4.3596
2 1.0899 9.8091 5.4495
1 3.2697 9.8091 7.6293
2 1.0899 11.9889 7.6293
2 3.2697 11.9889 5.4495
2 4.3596 8.7192 4.3596
2 6.5394 8.7192 6.5394
2 4.3596 10.899 6.5394
2 6.5394 10.899 4.3596
1 5.4495 9.8091 5.4495
2 7.6293 9.8091 7.6293
2 5.4495 11.9889 7.6293
2 7.6293 11.9889 5.4495
2 8.7192 8.7192 4.3596
2 10.899 8.7192 6.5394
2 8.7192 10.899 6.5394
2 10.899 10.899 4.3596
2 9.8091 9.8091 5.4495
1 11.9889 9.8091 7.6293
1 9.8091 11.9889 7.6293
2 11.9889 11.9889 5.4495
2 13.0788 8.7192 4.3596
2 15.2586 8.7192 6.5394
2 13.0788 10.899 6.5394
2 15.2586 10.899 4.3596
1 14.1687 9.8091 5.4495
2 16.3485 9.8091 7.6293
1 14.1687 11.9889 7.6293
1 16.3485 11.9889 5.4495
2 0 13.0788 4.3596
2 2.1798 13.0788 6.5394
2 0 15.2586 6.5394
2 2.1798 15.2586 4.3596
2 1.0899 14.1687 5.4495
2 3.2697 14.1687 7.6293
2 1.0899 16.3485 7.6293
1 3.2697 16.3485 5.4495
2 4.3596 13.0788 4.3596
2 6.5394 13.0788 6.5394
2 4.3596 15.2586 6.5394
2 6.5394 15.2586 4.3596
1 5.4495 14.1687 5.4495
2 7.6293 14.1687 7.6293
2 5.4495 16.3485 7.6293
1 7.6293 16.3485 5.4495
2 8.7192 13.0788 4.3596
2 10.899 13.0788 6.5394
2 8.7192 15.2586 6.5394
2 10.899 15.2586 4.3596
2 9.8091 14.1687 5.4495
2 11.9889 14.1687 7.6293
2 9.8091 16.3485 7.6293
1 11.9889 16.3485 5.4495
2 13.0788 13.0788 4.3596
2 15.2586 13.0788 6.5394
2 13.0788 15.2586 6.5394
2 15.2586 15.2586 4.3596
2 14.1687 14.1687 5.4495
2 16.3485 14.1687 7.6293
2 14.1687 16.3485 7.6293
2 16.3485 16.3485 5.4495
2 0 0 8.7192
2 2.1798 2.1798 8.7192
2 4.3596 0 8.7192
2 6.5394 2.1798 8.7192
2 8.7192 0 8.7192
2 10.899 2.1798 8.7192
2 13.0788 0 8.7192
2 15.2586 2.1798 8.7192
2 0 4.3596 8.7192
2 2.1798 6.5394 8.7192
2 4.3596 4.3596 8.7192
2 6.5394 6.5394 8.7192
2 8.7192 4.3596 8.7192
2 10.899 6.5394 8.7192
2 13.0788 4.3596 8.7192
2 15.2586 6.5394 8.7192
2 0 8.7192 8.7192
2 2.1798 10.899 8.7192
2 4.3596 8.7192 8.7192
2 6.5394 10.899 8.7192
2 8.7192 8.7192 8.7192
2 10.899 10.899 8.7192
2 13.0788 8.7192 8.7192
2 15.2586 10.899 8.7192
2 0 13.0788 8.7192
2 2.1798 15.2586 8.7192
2 4.3596 13.0788 8.7192
2 6.5394 15.2586 8.7192
2 8.7192 13.0788 8.7192
2 10.899 15.2586 8.7192
2 13.0788 13.0788 8.7192
2 15.2586 15.2586 8.7192
2 13.8729 10.0971 9.66929
2 2.78571 14.7313 16.3825
2 6.56377 2.01901 15.8968
2 11.3595 2.82589 10.0182
2 7.5602 8.04171 9.48672
2 6.30647 2.21894 10.365
2 13.3344 10.9688 10.9952
2 6.40162 14.5203 10.0208
2 15.3139 6.59954 10.2148
2 2.56058 15.1501 10.0875
2 5.6806 16.077 16.2292
2 1.90432 6.45948 10.4595
2 1.88255 6.77523 16.0118
301
Atoms. Timestep: 4
2 0 0 0
2 2.1798 0 2.1798
2 0 2.1798 2.1798
2 2.1798 2.1798 0
2 1.0899 1.0899 1.0899
2 3.2697 1.0899 3.2697
2 1.0899 3.2697 3.2697
2 3.2697 3.2697 1.0899
2 4.3596 0 0
2 6.5394 0 2.1798
2 4.3596 2.1798 2.1798
2 6.5394 2.1798 0
2 5.4495 1.0899 1.0899
2 7.6293 1.0899 3.2697
1 5.4495 3.2697 3.2697
1 7.6293 3.2697 1.0899
2 8.7192 0 0
2 10.899 0 2.1798
2 8.7192 2.1798 2.1798
2 10.899 2.1798 0
1 9.8091 1.0899 1.0899
2 11.9889 1.0899 3.2697
1 9.8091 3.2697 3.2697
1 11.9889 3.2697 1.0899
2 13.0788 0 0
2 15.2586 0 2.1798
2 13.0788 2.1798 2.1798
2 15.2586 2.1798 0
2 14.1687 1.0899 1.0899
1 16.3485 1.0899 3.2697
1 14.1687 3.2697 3.2697
2 16.3485 3.2697 1.0899
2 0 4.3596 0
2 2.1798 4.3596 2.1798
2 0 6.5394 2.1798
2 2.1798 6.5394 0
2 1.0899 5.4495 1.0899
2 3.2697 5.4495 3.2697
1 1.0899 7.6293 3.2697
1 3.2697 7.6293 1.0899
2 4.3596 4.3596 0
2 6.5394 4.3596 2.1798
2 4.3596 6.5394 2.1798
2 6.5394 6.5394 0
2 5.4495 5.4495 1.0899
1 7.6293 5.4495 3.2697
2 5.4495 7.6293 3.2697
2 7.6293 7.6293 1.0899
2 8.7192 4.3596 0
2 10.899 4.3596 2.1798
2 8.7192 6.5394 2.1798
2 10.899 6.5394 0
2 9.8091 5.4495 1.0899
2 11.9889 5.4495 3.2697
2 9.8091 7.6293 3.2697
1 11.9889 7.6293 1.0899
2 13.0788 4.3596 0
2 15.2586 4.3596 2.1798
2 13.0788 6.5394 2.1798
2 15.2586 6.5394 0
2 14.1687 5.4495 1.0899
1 16.3485 5.4495 3.2697
2 14.1687 7.6293 3.2697
1 16.3485 7.6293 1.0899
2 0 8.7192 0
2 2.1798 8.7192 2.1798
2 0 10.899 2.1798
2 2.1798 10.899 0
1 1.0899 9.8091 1.0899
2 3.2697 9.8091 3.2697
2 1.0899 11.9889 3.2697
2 3.2697 11.9889 1.0899
2 4.3596 8.7192 0
2 6.5394 8.7192 2.1798
2 4.3596 10.899 2.1798
2 6.5394 10.899 0
2 5.4495 9.8091 1.0899
2 7.6293 9.8091 3.2697
2 5.4495 11.9889 3.2697
2 7.6293 11.9889 1.0899
2 8.7192 8.7192 0
2 10.899 8.7192 2.1798
2 8.7192 10.899 2.1798
2 10.899 10.899 0
2 9.8091 9.8091 1.0899
2 11.9889 9.8091 3.2697
1 9.8091 11.9889 3.2697
2 11.9889 11.9889 1.0899
2 13.0788 8.7192 0
2 15.2586 8.7192 2.1798
2 13.0788 10.899 2.1798
2 15.2586 10.899 0
1 14.1687 9.8091 1.0899
1 16.3485 9.8091 3.2697
2 14.1687 11.9889 3.2697
2 16.3485 11.9889 1.0899
2 0 13.0788 0
2 2.1798 13.0788 2.1798
2 0 15.2586 2.1798
2 2.1798 15.2586 0
2 1.0899 14.1687 1.0899
1 3.2697 14.1687 3.2697
2 1.0899 16.3485 3.2697
1 3.2697 16.3485 1.0899
2 4.3596 13.0788 0
2 6.5394 13.0788 2.1798
2 4.3596 15.2586 2.1798
2 6.5394 15.2586 0
1 5.4495 14.1687 1.0899
2 7.6293 14.1687 3.2697
2 5.4495 16.3485 3.2697
1 7.6293 16.3485 1.0899
2 8.7192 13.0788 0
2 10.899 13.0788 2.1798
2 8.7192 15.2586 2.1798
2 10.899 15.2586 0
1 9.8091 14.1687 1.0899
2 11.9889 14.1687 3.2697
2 9.8091 16.3485 3.2697
2 11.9889 16.3485 1.0899
2 13.0788 13.0788 0
2 15.2586 13.0788 2.1798
2 13.0788 15.2586 2.1798
2 15.2586 15.2586 0
1 14.1687 14.1687 1.0899
2 16.3485 14.1687 3.2697
2 14.1687 16.3485 3.2697
2 16.3485 16.3485 1.0899
2 0 0 4.3596
2 2.1798 0 6.5394
2 0 2.1798 6.5394
2 2.1798 2.1798 4.3596
1 1.0899 1.0899 5.4495
1 3.2697 1.0899 7.6293
2 1.0899 3.2697 7.6293
2 3.2697 3.2697 5.4495
2 4.3596 0 4.3596
2 6.5394 0 6.5394
2 4.3596 2.1798 6.5394
2 6.5394 2.1798 4.3596
2 5.4495 1.0899 5.4495
2 7.6293 1.0899 7.6293
1 5.4495 3.2697 7.6293
1 7.6293 3.2697 5.4495