288
Atoms. Timestep: 0
2 0 0 0
2 2.1798 0 2.1798
2 0 2.1798 2.1798
2 2.1798 2.1798 0
1 1.0899 1.0899 1.0899
1 3.2697 1.0899 3.2697
1 1.0899 3.2697 3.2697
1 3.2697 3.2697 1.0899
2 4.3596 0 0
2 6.5394 0 2.1798
2 4.3596 2.1798 2.1798
2 6.5394 2.1798 0
1 5.4495 1.0899 1.0899
1 7.6293 1.0899 3.2697
1 5.4495 3.2697 3.2697
1 7.6293 3.2697 1.0899
2 8.7192 0 0
2 10.899 0 2.1798
2 8.7192 2.1798 2.1798
2 10.899 2.1798 0
1 9.8091 1.0899 1.0899
1 11.9889 1.0899 3.2697
1 9.8091 3.2697 3.2697
1 11.9889 3.2697 1.0899
2 13.0788 0 0
2 15.2586 0 2.1798
2 13.0788 2.1798 2.1798
2 15.2586 2.1798 0
1 14.1687 1.0899 1.0899
1 16.3485 1.0899 3.2697
1 14.1687 3.2697 3.2697
1 16.3485 3.2697 1.0899
2 0 4.3596 0
2 2.1798 4.3596 2.1798
2 0 6.5394 2.1798
2 2.1798 6.5394 0
1 1.0899 5.4495 1.0899
1 3.2697 5.4495 3.2697
1 1.0899 7.6293 3.2697
1 3.2697 7.6293 1.0899
2 4.3596 4.3596 0
2 6.5394 4.3596 2.1798
2 4.3596 6.5394 2.1798
2 6.5394 6.5394 0
1 5.4495 5.4495 1.0899
1 7.6293 5.4495 3.2697
1 5.4495 7.6293 3.2697
1 7.6293 7.6293 1.0899
2 8.7192 4.3596 0
2 10.899 4.3596 2.1798
2 8.7192 6.5394 2.1798
2 10.899 6.5394 0
1 9.8091 5.4495 1.0899
1 11.9889 5.4495 3.2697
1 9.8091 7.6293 3.2697
1 11.9889 7.6293 1.0899
2 13.0788 4.3596 0
2 15.2586 4.3596 2.1798
2 13.0788 6.5394 2.1798
2 15.2586 6.5394 0
1 14.1687 5.4495 1.0899
1 16.3485 5.4495 3.2697
1 14.1687 7.6293 3.2697
1 16.3485 7.6293 1.0899
2 0 8.7192 0
2 2.1798 8.7192 2.1798
2 0 10.899 2.1798
2 2.1798 10.899 0
1 1.0899 9.8091 1.0899
1 3.2697 9.8091 3.2697
1 1.0899 11.9889 3.2697
1 3.2697 11.9889 1.0899
2 4.3596 8.7192 0
2 6.5394 8.7192 2.1798
2 4.3596 10.899 2.1798
2 6.5394 10.899 0
1 5.4495 9.8091 1.0899
1 7.6293 9.8091 3.2697
1 5.4495 11.9889 3.2697
1 7.6293 11.9889 1.0899
2 8.7192 8.7192 0
2 10.899 8.7192 2.1798
2 8.7192 10.899 2.1798
2 10.899 10.899 0
1 9.8091 9.8091 1.0899
1 11.9889 9.8091 3.2697
1 9.8091 11.9889 3.2697
1 11.9889 11.9889 1.0899
2 13.0788 8.7192 0
2 15.2586 8.7192 2.1798
2 13.0788 10.899 2.1798
2 15.2586 10.899 0
1 14.1687 9.8091 1.0899
1 16.3485 9.8091 3.2697
1 14.1687 11.9889 3.2697
1 16.3485 11.9889 1.0899
2 0 13.0788 0
2 2.1798 13.0788 2.1798
2 0 15.2586 2.1798
2 2.1798 15.2586 0
1 1.0899 14.1687 1.0899
1 3.2697 14.1687 3.2697
1 1.0899 16.3485 3.2697
1 3.2697 16.3485 1.0899
2 4.3596 13.0788 0
2 6.5394 13.0788 2.1798
2 4.3596 15.2586 2.1798
2 6.5394 15.2586 0
1 5.4495 14.1687 1.0899
1 7.6293 14.1687 3.2697
1 5.4495 16.3485 3.2697
1 7.6293 16.3485 1.0899
2 8.7192 13.0788 0
2 10.899 13.0788 2.1798
2 8.7192 15.2586 2.1798
2 10.899 15.2586 0
1 9.8091 14.1687 1.0899
1 11.9889 14.1687 3.2697
1 9.8091 16.3485 3.2697
1 11.9889 16.3485 1.0899
2 13.0788 13.0788 0
2 15.2586 13.0788 2.1798
2 13.0788 15.2586 2.1798
2 15.2586 15.2586 0
1 14.1687 14.1687 1.0899
1 16.3485 14.1687 3.2697
1 14.1687 16.3485 3.2697
1 16.3485 16.3485 1.0899
2 0 0 4.3596
2 2.1798 0 6.5394
2 0 2.1798 6.5394
2 2.1798 2.1798 4.3596
1 1.0899 1.0899 5.4495
1 3.2697 1.0899 7.6293
1 1.0899 3.2697 7.6293
1 3.2697 3.2697 5.4495
2 4.3596 0 4.3596
2 6.5394 0 6.5394
2 4.3596 2.1798 6.5394
2 6.5394 2.1798 4.3596
1 5.4495 1.0899 5.4495
1 7.6293 1.0899 7.6293
1 5.4495 3.2697 7.6293
1 7.6293 3.2697 5.4495
2 8.7192 0 4.3596
2 10.899 0 6.5394
2 8.7192 2.1798 6.5394
2 10.899 2.1798 4.3596
1 9.8091 1.0899 5.4495
1 11.9889 1.0899 7.6293
1 9.8091 3.2697 7.6293
1 11.9889 3.2697 5.4495
2 13.0788 0 4.3596
2 15.2586 0 6.5394
2 13.0788 2.1798 6.5394
2 15.2586 2.1798 4.3596
1 14.1687 1.0899 5.4495
1 16.3485 1.0899 7.6293
1 14.1687 3.2697 7.6293
1 16.3485 3.2697 5.4495
2 0 4.3596 4.3596
2 2.1798 4.3596 6.5394
2 0 6.5394 6.5394
2 2.1798 6.5394 4.3596
1 1.0899 5.4495 5.4495
1 3.2697 5.4495 7.6293
1 1.0899 7.6293 7.6293
1 3.2697 7.6293 5.4495
2 4.3596 4.3596 4.3596
2 6.5394 4.3596 6.5394
2 4.3596 6.5394 6.5394
2 6.5394 6.5394 4.3596
1 5.4495 5.4495 5.4495
1 7.6293 5.4495 7.6293
1 5.4495 7.6293 7.6293
1 7.6293 7.6293 5.4495
2 8.7192 4.3596 4.3596
2 10.899 4.3596 6.5394
2 8.7192 6.5394 6.5394
2 10.899 6.5394 4.3596
1 9.8091 5.4495 5.4495
1 11.9889 5.4495 7.6293
1 9.8091 7.6293 7.6293
1 11.9889 7.6293 5.4495
2 13.0788 4.3596 4.3596
2 15.2586 4.3596 6.5394
2 13.0788 6.5394 6.5394
2 15.2586 6.5394 4.3596
1 14.1687 5.4495 5.4495
1 16.3485 5.4495 7.6293
1 14.1687 7.6293 7.6293
1 16.3485 7.6293 5.4495
2 0 8.7192 4.3596
2 2.1798 8.7192 6.5394
2 0 10.899 6.5394
2 2.1798 10.899 4.3596
1 1.0899 9.8091 5.4495
1 3.2697 9.8091 7.6293
1 1.0899 11.9889 7.6293
1 3.2697 11.9889 5.4495
2 4.3596 8.7192 4.3596
2 6.5394 8.7192 6.5394
2 4.3596 10.899 6.5394
2 6.5394 10.899 4.3596
1 5.4495 9.8091 5.4495
1 7.6293 9.8091 7.6293
1 5.4495 11.9889 7.6293
1 7.6293 11.9889 5.4495
2 8.7192 8.7192 4.3596
2 10.899 8.7192 6.5394
2 8.7192 10.899 6.5394
2 10.899 10.899 4.3596
1 9.8091 9.8091 5.4495
1 11.9889 9.8091 7.6293
1 9.8091 11.9889 7.6293
1 11.9889 11.9889 5.4495
2 13.0788 8.7192 4.3596
2 15.2586 8.7192 6.5394
2 13.0788 10.899 6.5394
2 15.2586 10.899 4.3596
1 14.1687 9.8091 5.4495
1 16.3485 9.8091 7.6293
1 14.1687 11.9889 7.6293
1 16.3485 11.9889 5.4495
2 0 13.0788 4.3596
2 2.1798 13.0788 6.5394
2 0 15.2586 6.5394
2 2.1798 15.2586 4.3596
1 1.0899 14.1687 5.4495
1 3.2697 14.1687 7.6293
1 1.0899 16.3485 7.6293
1 3.2697 16.3485 5.4495
2 4.3596 13.0788 4.3596
2 6.5394 13.0788 6.5394
2 4.3596 15.2586 6.5394
2 6.5394 15.2586 4.3596
1 5.4495 14.1687 5.4495
1 7.6293 14.1687 7.6293
1 5.4495 16.3485 7.6293
1 7.6293 16.3485 5.4495
2 8.7192 13.0788 4.3596
2 10.899 13.0788 6.5394
2 8.7192 15.2586 6.5394
2 10.899 15.2586 4.3596
1 9.8091 14.1687 5.4495
1 11.9889 14.1687 7.6293
1 9.8091 16.3485 7.6293
1 11.9889 16.3485 5.4495
2 13.0788 13.0788 4.3596
2 15.2586 13.0788 6.5394
2 13.0788 15.2586 6.5394
2 15.2586 15.2586 4.3596
1 14.1687 14.1687 5.4495
1 16.3485 14.1687 7.6293
1 14.1687 16.3485 7.6293
1 16.3485 16.3485 5.4495
2 0 0 8.7192
2 2.1798 2.1798 8.7192
2 4.3596 0 8.7192
2 6.5394 2.1798 8.7192
2 8.7192 0 8.7192
2 10.899 2.1798 8.7192
2 13.0788 0 8.7192
2 15.2586 2.1798 8.7192
2 0 4.3596 8.7192
2 2.1798 6.5394 8.7192
2 4.3596 4.3596 8.7192
2 6.5394 6.5394 8.7192
2 8.7192 4.3596 8.7192
2 10.899 6.5394 8.7192
2 13.0788 4.3596 8.7192
2 15.2586 6.5394 8.7192
2 0 8.7192 8.7192
2 2.1798 10.899 8.7192
2 4.3596 8.7192 8.7192
2 6.5394 10.899 8.7192
2 8.7192 8.7192 8.7192
2 10.899 10.899 8.7192
2 13.0788 8.7192 8.7192
2 15.2586 10.899 8.7192
2 0 13.0788 8.7192
2 2.1798 15.2586 8.7192
2 4.3596 13.0788 8.7192
2 6.5394 15.2586 8.7192
2 8.7192 13.0788 8.7192
2 10.899 15.2586 8.7192
2 13.0788 13.0788 8.7192
2 15.2586 15.2586 8.7192
443
Atoms. Timestep: 1
2 17.4376 0.000687436 0.00094356
2 2.17886 17.4374 2.17891
2 0.000541772 2.17998 2.18066
2 2.18038 2.17947 17.4378
1 1.08959 1.0903 1.09056
1 3.26923 1.08969 3.2691
1 1.08959 3.26927 3.2702
1 3.26931 3.27026 1.08957
2 4.36048 0.00089435 17.438
2 6.53966 3.28597e-05 2.1792
2 4.36044 2.17947 2.1808
2 6.54032 2.18068 17.4375
1 5.45006 1.09042 1.08972
1 7.62878 1.09017 3.26983
1 5.44916 3.26928 3.27038
1 7.62905 3.26975 1.09019
2 8.71941 5.9036e-06 17.4382
2 10.8992 17.4381 2.18028
2 8.71844 2.17987 2.17892
2 10.8991 2.17915 0.000372054
1 9.80969 1.08969 1.09008
1 11.9889 1.08937 3.26924
1 9.80917 3.26917 3.26925
1 11.9888 3.26935 1.08956
2 13.079 17.4375 0.000504117
2 15.2588 17.4382 2.17939
2 13.0796 2.17915 2.17963
2 15.2589 2.18059 0.00101064
1 14.1687 1.09019 1.09017
1 16.3481 1.08965 3.26962
1 14.1691 3.26977 3.26943
1 16.3483 3.26944 1.0901
2 17.4377 4.3595 0.000484091
2 2.17888 4.35863 2.1797
2 0.000279357 6.53932 2.18017
2 2.17894 6.53981 17.4375
1 1.09028 5.44982 1.09048
1 3.26993 5.44929 3.26926
1 1.09025 7.62995 3.26949
1 3.26959 7.62877 1.08941
2 4.35915 4.3602 17.4375
2 6.5393 4.36019 2.18027
2 4.35928 6.53981 2.17913
2 6.53844 6.54022 0.000367692
1 5.45002 5.44913 1.09042
1 7.62926 5.44925 3.26945
1 5.44993 7.62948 3.27024
1 7.62933 7.62947 1.09049
2 8.72002 4.35905 0.000572238
2 10.8994 4.35961 2.18025
2 8.71911 6.53985 2.18053
2 10.898 6.53867 17.4381
1 9.80878 5.44981 1.08934
1 11.9895 5.44965 3.26979
1 9.80855 7.62881 3.26944
1 11.9884 7.62879 1.08958
2 13.0793 4.35923 7.88524e-05
2 15.2583 4.36039 2.1795
2 13.0784 6.53862 2.18082
2 15.2595 6.53844 0.000579037
1 14.1692 5.4497 1.08981
1 16.3485 5.4496 3.26938
1 14.1688 7.6295 3.27012
1 16.3483 7.62962 1.08928
2 0.000734755 8.71981 0.000822992
2 2.17963 8.71948 2.17913
2 6.80626e-05 10.8998 2.17976
2 2.18029 10.8986 17.4379
1 1.09047 9.80925 1.08994
1 3.26996 9.80963 3.2693
1 1.08999 11.9885 3.26942
1 3.27001 11.9883 1.09005
2 4.3604 8.71856 17.4384
2 6.5398 8.7183 2.18077
2 4.36005 10.8997 2.17921
2 6.53839 10.899 0.000839214
1 5.44951 9.80957 1.08968
1 7.62901 9.8085 3.26954
1 5.44955 11.9891 3.27004
1 7.62885 11.9892 1.08988
2 8.71853 8.71903 0.000398929
2 10.8982 8.71997 2.17921
2 8.71838 10.8985 2.17957
2 10.8997 10.8987 0.000747456
1 9.80848 9.80971 1.08958
1 11.9893 9.80896 3.26977
1 9.80971 11.989 3.26989
1 11.9888 11.9885 1.08932
2 13.0791 8.71832 17.4374
2 15.2581 8.71961 2.17885
2 13.0786 10.8989 2.18031
2 15.2585 10.8997 17.4383
1 14.1686 9.80953 1.0896
1 16.3481 9.80915 3.26998
1 14.1681 11.9883 3.27018
1 16.3485 11.989 1.08936
2 17.4383 13.079 17.4375
2 2.17917 13.078 2.18032
2 0.000574814 15.259 2.18007
2 2.17998 15.258 17.4383
1 1.08939 14.1681 1.08956
1 3.26996 14.1691 3.27036
1 1.08978 16.3483 3.26966
1 3.27005 16.3491 1.09057
2 4.35866 13.0793 0.000504095
2 6.53921 13.0796 2.17887
2 4.35927 15.2586 2.18036
2 6.53866 15.2594 17.4376
1 5.44974 14.1693 1.08934
1 7.62908 14.169 3.27014
1 5.44939 16.3484 3.27012
1 7.62938 16.3491 1.09028
2 8.71996 13.0781 17.4384
2 10.8993 13.0781 2.1791
2 8.71929 15.259 2.18059
2 10.9 15.2582 17.4381
1 9.80931 14.1681 1.08946
1 11.9888 14.1689 3.26988
1 9.80894 16.3487 3.26954
1 11.9888 16.3484 1.08933
2 13.0797 13.0789 17.4377
2 15.2588 13.0779 2.18049
2 13.0785 15.2591 2.18067
2 15.2594 15.2591 17.4379
1 14.1682 14.1689 1.08984
1 16.3482 14.1682 3.26946
1 14.1694 16.349 3.26969
1 16.348 16.3486 1.08983
2 17.4378 3.81958e-05 4.35923
2 2.17995 17.4379 6.53892
2 17.4375 2.18032 6.53977
2 2.17937 2.17919 4.35986
1 1.08958 1.09052 5.44917
1 3.26953 1.08967 7.62946
1 1.08925 3.26978 7.62969
1 3.26926 3.26995 5.44915
2 4.36046 17.4375 4.35941
2 6.53915 17.4379 6.5389
2 4.35931 2.17964 6.54041
2 6.53957 2.18055 4.3601
1 5.44975 1.0899 5.44974
1 7.62898 1.09046 7.62945
1 5.45011 3.27012 7.62952
1 7.62949 3.27034 5.44933
2 8.71927 17.4375 4.36032
2 10.8989 0.000410694 6.5392
2 8.71993 2.18032 6.54014
2 10.8989 2.17952 4.35904
1 9.80888 1.08971 5.44895
1 11.9886 1.08928 7.62916
1 9.80972 3.2699 7.62877
1 11.9889 3.26936 5.44934
2 13.0781 6.97468e-05 4.35882
2 15.2585 17.4375 6.53993
2 13.0786 2.18046 6.53841
2 15.2578 2.17959 4.3599
1 14.1681 1.08931 5.44929
1 16.3484 1.08931 7.62919
1 14.1682 3.27025 7.62938
1 16.348 3.26931 5.45014
2 17.438 4.36054 4.36033
2 2.18073 4.35951 6.53983
2 0.000217261 6.53873 6.54039
2 2.18023 6.54032 4.35964
1 1.0901 5.44906 5.44929
1 3.27031 5.44939 7.6293
1 1.08967 7.62946 7.62873
1 3.27003 7.62887 5.45008
2 4.35946 4.35936 4.36057
2 6.53881 4.35879 6.53903
2 4.35949 6.53909 6.53883
2 6.54003 6.53969 4.35967
1 5.44926 5.44952 5.44926
1 7.62978 5.45011 7.62894
1 5.4497 7.62974 7.62899
1 7.62902 7.629 5.44912
2 8.71819 4.36005 4.36051
2 10.8994 4.36013 6.54025
2 8.71837 6.53931 6.53899
2 10.8998 6.53969 4.35906
1 9.80856 5.44952 5.4492
1 11.9894 5.45008 7.62949
1 9.80941 7.62904 7.62921
1 11.989 7.62971 5.45008
2 13.0797 4.35973 4.35894
2 15.2595 4.35897 6.54017
2 13.0796 6.53887 6.53981
2 15.2584 6.53947 4.35894
1 14.1692 5.44923 5.45008
1 16.3481 5.44962 7.62955
1 14.1682 7.62899 7.62988
1 16.3491 7.62866 5.44988
2 0.000495201 8.71947 4.35988
2 2.18053 8.71868 6.53959
2 0.000985729 10.8987 6.53862
2 2.18023 10.8997 4.36047
1 1.09045 9.80856 5.44973
1 3.27008 9.80913 7.62963
1 1.0905 11.9895 7.62991
1 3.27019 11.9892 5.44901
2 4.36007 8.71887 4.35998
2 6.53923 8.71834 6.54003
2 4.3593 10.8985 6.53907
2 6.53963 10.8994 4.35914
1 5.44913 9.80932 5.44932
1 7.62987 9.80972 7.62938
1 5.44965 11.9895 7.62914
1 7.62865 11.989 5.44983
2 8.72014 8.71937 4.36049
2 10.8983 8.71939 6.53973
2 8.71819 10.8989 6.5404
2 10.8984 10.8991 4.35962
1 9.8095 9.80906 5.44987
1 11.9894 9.80892 7.62988
1 9.80895 11.9889 7.62944
1 11.9885 11.9886 5.44925
2 13.0788 8.71842 4.35934
2 15.2588 8.71833 6.54025
2 13.0782 10.8995 6.53892
2 15.2588 10.899 4.35888
1 14.1683 9.80845 5.44942
1 16.3485 9.80906 7.62871
1 14.1685 11.9893 7.62913
1 16.3479 11.9885 5.44932
2 3.12222e-05 13.0785 4.35957
2 2.17912 13.0797 6.53868
2 0.000141215 15.2587 6.5388
2 2.17947 15.2578 4.36034
1 1.0895 14.1692 5.45014
1 3.26932 14.1691 7.62894
1 1.08942 16.3488 7.62885
1 3.26967 16.3482 5.44948
2 4.36001 13.0793 4.36024
2 6.53869 13.0789 6.53847
2 4.35924 15.258 6.54008
2 6.53841 15.2592 4.35978
1 5.44975 14.1691 5.44913
1 7.6298 14.1685 7.62974
1 5.44921 16.348 7.62965
1 7.62908 16.3479 5.44907
2 8.71957 13.0792 4.36027
2 10.8981 13.0795 6.53924
2 8.71829 15.2579 6.54027
2 10.899 15.259 4.35902
1 9.80893 14.1692 5.44898
1 11.9894 14.169 7.62872
1 9.80922 16.349 7.62888
1 11.9889 16.3479 5.44943
2 13.0796 13.0792 4.36019
2 15.2588 13.0794 6.54033
2 13.0787 15.2579 6.53888
2 15.2585 15.2584 4.36015
1 14.169 14.1691 5.44937
1 16.3478 14.1687 7.62871
1 14.1686 16.349 7.62922
1 16.3489 16.3482 5.44996
2 0.000816586 17.4378 8.71912
2 4.35897 17.4381 8.71942
2 6.53996 2.17979 8.7195
2 8.71901 17.4374 8.71939
2 10.899 2.18024 8.71943
2 13.0785 0.000879457 8.7186
2 15.2581 2.17941 8.71912
2 0.000959746 4.35976 8.71845
2 2.17987 6.53885 8.71916
2 4.3602 4.35997 8.71888
2 6.53989 6.53986 8.71821
2 8.72002 4.36024 8.71885
2 10.8997 6.5392 8.71964
2 13.0785 4.35941 8.71859
2 15.2582 6.53972 8.72018
2 0.000795639 8.71831 8.7187
2 2.17994 10.8987 8.72021
2 4.35968 8.71867 8.72003
2 6.5391 10.8988 8.71836
2 8.71908 8.71832 8.71875
2 10.8995 10.8992 8.71939
2 13.0778 8.71917 8.71993
2 15.2577 10.8989 8.71849
2 0.000763617 13.0785 8.71832
2 2.17975 15.2586 8.7189
2 4.35957 13.0783 8.71844
2 6.5392 15.2592 8.71988
2 8.72019 13.0785 8.71908
2 10.899 15.2588 8.71902
2 13.0784 13.0783 8.71955
2 15.2595 15.2576 8.71978
1 8.92951 3.45086 15.8803
1 16.2328 0.898454 16.0977
1 2.79005 0.44605 15.6898
1 10.883 16.2358 15.7194
1 1.25643 16.3247 10.5765
1 15.4924 7.2242 11.0067
1 9.08151 12.1363 15.5523
1 6.8236 9.37646 16.7044
1 8.28826 2.77505 9.98289
1 13.9552 16.0636 16.5404
1 3.22981 15.1484 15.5191
1 1.70292 4.58804 16.0231
1 16.6836 9.43316 10.6039
1 16.2215 2.7263 10.285
1 13.008 0.811986 10.223
1 0.136372 7.57104 15.9294
1 12.5701 0.197039 15.7698
1 14.671 13.6145 10.0771
1 6.84523 6.73755 10.5203
1 15.0309 11.4139 10.2868
1 10.1612 5.41667 9.45777
1 15.4327 15.5227 10.9306
1 1.83429 15.2894 13.296
1 17.2142 15.5084 14.8485
1 9.35454 14.5496 14.3827
1 13.5965 3.99555 15.3356
1 5.04792 2.51601 15.8713
1 4.87704 7.88413 11.5995
1 4.4751 1.15983 14.6148
1 8.89333 5.722 14.2751
1 13.7519 0.207248 12.9765
1 3.55657 13.8502 11.8999
1 0.155778 2.40268 11.8907
1 4.74325 8.81598 13.5076
1 16.2552 10.8039 12.778
1 5.39507 12.7171 11.4204
1 0.969671 9.80159 12.2353
1 7.34853 7.96411 13.1595
1 10.449 11.9339 13.4086
1 11.6538 13.9075 16.5525
1 11.4277 16.2314 13.016
1 7.45032 9.80365 11.8914
1 0.773136 2.48492 16.5065
1 12.0793 15.6803 10.4803
1 6.21723 2.1318 10.6203
1 7.39976 14.4748 12.7218
1 1.00605 10.9535 15.5714
1 4.74714 4.4985 10.8016
1 15.0151 7.12275 14.7986
1 14.5296 9.50403 15.9735
1 16.3459 0.732168 11.4824
1 13.7348 9.10841 10.836
1 15.0127 2.99006 13.9027
1 8.00415 5.95218 11.7097
1 1.93947 4.35651 13.403
1 13.9497 10.6598 14.3128
1 4.76003 11.8946 15.9031
1 3.74055 2.0593 12.7925
1 9.06167 10.0165 15.2415
1 6.55877 5.12335 14.8151
1 10.7652 7.09997 15.7348
1 0.574175 6.73235 10.226
1 7.48285 15.9138 10.4336
1 3.98742 0.802708 11.2326
1 5.24066 15.8549 14.9776
1 10.7415 9.87745 14.1631
1 9.26235 17.2409 10.825
1 11.9716 3.2474 14.3268
1 5.56924 10.3411 11.6445
1 1.33097 13.5483 12.445
1 13.4587 7.38098 12.7724
1 12.4026 8.62728 15.8012
1 5.05009 4.11482 14.4901
1 6.45227 11.3353 14.6831
1 2.75828 7.20577 15.0878
1 1.28359 1.94937 13.7709
1 15.9626 11.2927 14.7607
1 15.5726 13.816 13.5276
1 10.1745 2.41832 13.3093
2 6.30434 1.28628 12.3729
2 2.22045 0.930229 9.55899
2 1.09277 3.55219 10.0408
2 7.54314 0.345193 12.103
2 7.01289 16.9963 15.3848
2 9.30685 15.2643 11.4547
2 11.3884 0.742573 11.9692
2 9.05102 5.3773 10.4701
2 0.943868 12.0883 11.2653
2 16.4762 10.3206 16.8306
2 16.0972 5.82756 9.68995
2 2.70863 9.79943 10.854
2 5.19231 5.37246 16.3263
2 2.35494 11.8114 12.0673
2 6.25912 8.62825 14.6601
2 13.099 13.3108 14.9783
2 2.85285 9.76225 13.6773
2 13.4626 2.74018 16.8147
2 11.4178 7.05096 11.5481
2 6.60218 2.34885 14.0627
2 10.6832 6.20335 12.948
2 8.42506 0.212476 13.6537
2 5.1161 14.9605 13.8276
2 6.07968 9.52754 9.91204
2 1.3168 2.07884 9.87851
2 3.42346 8.77744 11.04
2 8.70409 16.3685 13.9943
2 6.56377 2.01901 15.8968
2 16.4064 6.33222 16.4795
2 6.76166 14.6563 11.2502
2 5.00937 17.3634 12.1587
2 10.2637 1.10464 11.2428
2 11.3595 2.82589 10.0182
2 16.1284 8.33563 14.2545
2 12.206 1.51874 13.0121
2 15.2048 4.1108 16.6895
2 14.2046 5.74591 15.1221
2 0.039908 8.07515 13.4911
2 1.785 6.416 12.0763
2 2.23783 14.0765 14.5357
2 11.0021 13.1438 14.9893
2 7.5602 8.04171 9.48672
2 15.0354 17.1859 10.965
2 1.50211 12.5606 13.8717
2 7.50023 11.5386 13.5529
2 5.13096 3.22031 12.3988
2 1.20229 13.1466 10.2521
2 4.40931 11.584 9.35405
2 14.526 1.25406 11.4191
2 5.82665 11.8994 10.2241
2 13.3283 13.2204 12.9494
2 13.3344 10.9688 10.9952
2 3.47581 16.6816 10.2296
2 10.8634 1.13814 16.2723
2 13.2289 15.7864 14.1375
2 16.2741 15.4917 13.7378
2 5.83053 7.33343 15.7087
2 11.9152 13.8003 10.87
2 12.4349 12.0895 12.6664
2 11.918 8.28878 11.6184
2 2.56058 15.1501 10.0875
2 6.35112 2.76482 12.4141
2 12.3246 5.80497 13.7915
2 15.3024 6.55817 12.3968
2 6.76582 14.7561 14.6835
2 3.78552 7.89853 9.49003
2 9.20717 13.9654 12.3179
2 0.687073 3.41653 14.3728
2 3.99528 10.7646 14.4134
2 4.41837 6.8643 13.252
2 4.05724 5.82784 14.3919
2 8.00121 8.87414 14.484
2 2.88166 5.54753 11.6935
2 1.88255 6.77523 16.0118
2 0.325385 10.5235 8.8677
2 9.43086 6.79576 12.2835
2 0.775066 0.0465329 14.7886
443
Atoms. Timestep: 2
2 17.4367 0.00137716 0.00189681
2 2.17792 17.4364 2.17801
2 0.0010833 2.18016 2.18153
2 2.181 2.17912 17.4373
1 1.08928 1.09069 1.09122
1 3.26877 1.08949 3.2685
1 1.08928 3.26883 3.27071
1 3.26893 3.27082 1.08923
2 4.36132 0.00179485 17.4377
2 6.53993 6.57557e-05 2.17861
2 4.36127 2.17915 2.1818
2 6.54123 2.18156 17.4367
1 5.45063 1.09095 1.08954
1 7.62825 1.09044 3.26996
1 5.44882 3.26886 3.27106
1 7.62878 3.2698 1.0905
2 8.71963 1.17751e-05 17.438
2 10.8994 17.4377 2.18075
2 8.71768 2.17994 2.17804
2 10.8993 2.17847 0.000754344
1 9.81027 1.08948 1.09028
1 11.9888 1.08884 3.26879
1 9.80925 3.26865 3.26881
1 11.9887 3.26899 1.08922
2 13.0791 17.4367 0.00107139
2 15.2589 17.438 2.17897
2 13.0804 2.17849 2.17945
2 15.2591 2.18135 0.00200936
1 14.1687 1.09048 1.09044
1 16.3477 1.0894 3.26954
1 14.1695 3.26983 3.26916
1 16.3481 3.26919 1.0903
2 17.4369 4.3594 0.000953139
2 2.17796 4.35765 2.1796
2 0.000557852 6.53924 2.18054
2 2.17813 6.54033 17.4367
1 1.09066 5.45015 1.09107
1 3.27016 5.44908 3.26882
1 1.09061 7.63059 3.26929
1 3.26948 7.62824 1.08892
2 4.35868 4.36079 17.4366
2 6.5392 4.36079 2.18074
2 4.35896 6.54023 2.17846
2 6.53745 6.54107 0.000696849
1 5.45053 5.44877 1.09094
1 7.62922 5.44899 3.26919
1 5.45035 7.62967 3.27078
1 7.62936 7.62964 1.09107
2 8.72082 4.35848 0.0011726
2 10.8997 4.35962 2.1807
2 8.71903 6.54031 2.18126
2 10.897 6.53795 17.4378
1 9.80847 5.45012 1.08878
1 11.9901 5.4498 3.26987
1 9.808 7.62832 3.26918
1 11.988 7.62827 1.08928
2 13.0797 4.35887 0.000165589
2 15.2579 4.36118 2.1792
2 13.0779 6.53783 2.18184
2 15.2603 6.5375 0.00119361
1 14.1697 5.4499 1.08971
1 16.3486 5.4497 3.26905
1 14.1689 7.62969 3.27054
1 16.348 7.62996 1.08873
2 0.00142386 8.72048 0.00163244
2 2.17945 8.71975 2.17845
2 0.000136838 10.9006 2.17972
2 2.18076 10.8982 17.4375
1 1.09104 9.8094 1.08998
1 3.27022 9.81016 3.26889
1 1.09008 11.9881 3.26915
1 3.27033 11.9878 1.0902
2 4.36119 8.71791 17.4384
2 6.5402 8.7174 2.18176
2 4.36049 10.9003 2.17861
2 6.53738 10.8991 0.00171257
1 5.4495 9.81004 1.08946
1 7.62872 9.8079 3.26937
1 5.44961 11.9894 3.27038
1 7.6284 11.9895 1.08984
2 8.71785 8.71887 0.000805678
2 10.8973 8.72075 2.17862
2 8.71756 10.898 2.17934
2 10.9004 10.8984 0.00152224
1 9.80785 9.81031 1.08925
1 11.9897 9.80883 3.26984
1 9.81032 11.9892 3.27007
1 11.9886 11.9881 1.08873
2 13.0794 8.71744 17.4365
2 15.2575 8.72001 2.1779
2 13.0784 10.8988 2.18082
2 15.2584 10.9004 17.4381
1 14.1685 9.80996 1.08932
1 16.3477 9.80919 3.27027
1 14.1675 11.9877 3.27067
1 16.3486 11.989 1.08883
2 17.4383 13.0792 17.4366
2 2.17855 13.0771 2.18084
2 0.0011494 15.2595 2.18034
2 2.18018 15.2574 17.4382
1 1.08889 14.1675 1.08921
1 3.27021 14.1694 3.27103
1 1.08966 16.348 3.26962
1 3.27039 16.3497 1.09123
2 4.35771 13.0797 0.00101555
2 6.53901 13.0804 2.17795
2 4.35895 15.2586 2.18092
2 6.53793 15.2603 17.4369
1 5.44997 14.1699 1.08878
1 7.62885 14.1694 3.27058
1 5.44927 16.3484 3.27054
1 7.62946 16.3497 1.09065
2 8.72071 13.0774 17.4383
2 10.8997 13.0775 2.1784
2 8.71938 15.2593 2.18138
2 10.9009 15.2579 17.4377
1 9.80952 14.1675 1.08902
1 11.9887 14.1691 3.27006
1 9.80877 16.3488 3.26938
1 11.9887 16.3483 1.08877
2 13.0806 13.0791 17.4369
2 15.2589 13.077 2.18118
2 13.0782 15.2595 2.18156
2 15.2601 15.2595 17.4375
1 14.1677 14.169 1.08978
1 16.348 14.1677 3.26921
1 14.17 16.3495 3.26967
1 16.3476 16.3487 1.08975
2 17.4372 7.63694e-05 4.35885
2 2.1801 17.4373 6.53843
2 17.4365 2.18085 6.54015
2 2.17894 2.17859 4.36011
1 1.08927 1.09114 5.44883
1 3.26936 1.08944 7.62964
1 1.08861 3.26986 7.63005
1 3.26882 3.2702 5.44881
2 4.36133 17.4365 4.35921
2 6.5389 17.4374 6.53839
2 4.35902 2.17948 6.54142
2 6.53973 2.18129 4.36061
1 5.45001 1.0899 5.44997
1 7.62866 1.09101 7.6296
1 5.45072 3.27053 7.62974
1 7.62969 3.27098 5.44915
2 8.71933 17.4367 4.36103
2 10.8988 0.000820544 6.53901
2 8.72066 2.18083 6.54088
2 10.8988 2.17923 4.35847
1 9.80865 1.08951 5.44841
1 11.9883 1.08867 7.62902
1 9.81034 3.27008 7.62822
1 11.9889 3.26902 5.44918
2 13.0774 0.000139388 4.35805
2 15.2583 17.4367 6.54046
2 13.0785 2.18112 6.53742
2 15.257 2.17938 4.36021
1 14.1676 1.08871 5.44908
1 16.3482 1.08872 7.6291
1 14.1676 3.2708 7.62947
1 16.3475 3.26893 5.45079
2 17.4376 4.36148 4.36105
2 2.18167 4.35941 6.54027
2 0.000434404 6.53806 6.54137
2 2.18067 6.54124 4.35968
1 1.0903 5.44862 5.44908
1 3.27092 5.44928 7.62931
1 1.08943 7.62963 7.62816
1 3.27035 7.62844 5.45066
2 4.35931 4.35911 4.36154
2 6.53822 4.35798 6.53867
2 4.35938 6.53879 6.53825
2 6.54066 6.53998 4.35974
1 5.44903 5.44953 5.44902
1 7.63025 5.45072 7.62859
1 5.44991 7.63018 7.62868
1 7.62874 7.6287 5.44873
2 8.71719 4.3605 4.36142
2 10.8997 4.36066 6.5411
2 8.71753 6.53921 6.53858
2 10.9007 6.53999 4.35853
1 9.80803 5.44953 5.44889
1 11.99 5.45066 7.62968
1 9.80972 7.6288 7.6291
1 11.989 7.63012 5.45066
2 13.0806 4.35985 4.35827
2 15.2603 4.35834 6.54094
2 13.0804 6.53835 6.54022
2 15.2581 6.53954 4.35828
1 14.1696 5.44895 5.45066
1 16.3478 5.44975 7.6298
1 14.1676 7.62869 7.63047
1 16.3497 7.62802 5.45026
2 0.000990306 8.71974 4.36017
2 2.18126 8.71816 6.53978
2 0.00197001 10.8984 6.53782
2 2.18067 10.9004 4.36135
1 1.091 9.80802 5.44995
1 3.27046 9.80917 7.62997
1 1.0911 11.99 7.63052
1 3.27068 11.9895 5.44852
2 4.36054 8.71855 4.36035
2 6.53907 8.71748 6.54065
2 4.35901 10.8981 6.53874
2 6.53987 10.8998 4.35868
1 5.44875 9.80953 5.44913
1 7.63045 9.81034 7.62946
1 5.44979 11.9901 7.62896
1 7.62799 11.9892 5.45015
2 8.72108 8.71955 4.36139
2 10.8976 8.71958 6.54005
2 8.71719 10.8988 6.54141
2 10.8978 10.8991 4.35964
1 9.8099 9.80902 5.45025
1 11.9899 9.80873 7.63046
1 9.80879 11.9889 7.62959
1 11.9881 11.9882 5.449
2 13.0789 8.71765 4.35909
2 15.2589 8.71746 6.54109
2 13.0775 10.9001 6.53845
2 15.259 10.8991 4.35816
1 14.168 9.80781 5.44934
1 16.3485 9.80901 7.62812
1 14.1684 11.9897 7.62893
1 16.3474 11.9881 5.44914
2 6.24171e-05 13.0783 4.35954
2 2.17844 13.0807 6.53795
2 0.000282276 15.2589 6.5382
2 2.17913 15.2571 4.36109
1 1.08909 14.1697 5.45079
1 3.26895 14.1694 7.62858
1 1.08893 16.3491 7.62841
1 3.26964 16.3479 5.44946
2 4.36042 13.0797 4.36088
2 6.53798 13.079 6.53754
2 4.35888 15.2573 6.54075
2 6.53742 15.2597 4.35997
1 5.45 14.1695 5.44876
1 7.63029 14.1683 7.63018
1 5.44892 16.3476 7.63001
1 7.62886 16.3473 5.44863
2 8.71993 13.0797 4.36093
2 10.8973 13.0801 6.53908
2 8.71739 15.2572 6.54114
2 10.899 15.2594 4.35845
1 9.80875 14.1697 5.44846
1 11.9899 14.1694 7.62815
1 9.80933 16.3494 7.62846
1 11.9889 16.3472 5.44936
2 13.0805 13.0795 4.36078
2 15.259 13.0801 6.54126
2 13.0786 15.2571 6.53835
2 15.2585 15.2581 4.3607
1 14.1692 14.1696 5.44924
1 16.3472 14.1687 7.62812
1 14.1685 16.3494 7.62914
1 16.3493 16.3479 5.45042
2 0.00163148 17.4372 8.71901
2 4.35828 17.4376 8.71969
2 6.54052 2.17978 8.71977
2 8.71884 17.4364 8.71957
2 10.899 2.1807 8.71965
2 13.0781 0.00174791 8.71793
2 15.2575 2.17901 8.71903
2 0.00196146 4.35989 8.71774
2 2.17994 6.53829 8.71913
2 4.36082 4.36034 8.71856
2 6.54034 6.54025 8.71715
2 8.72083 4.36083 8.71842
2 10.9005 6.53909 8.72
2 13.0783 4.35922 8.71794
2 15.2577 6.54008 8.72109
2 0.00159426 8.71743 8.71821
2 2.18007 10.8984 8.72121
2 4.35981 8.71818 8.72073
2 6.53879 10.8986 8.71756
2 8.71894 8.71743 8.71829
2 10.9 10.8995 8.71954
2 13.0768 8.71914 8.72069
2 15.2567 10.8988 8.7177
2 0.0015907 13.0783 8.71749
2 2.17972 15.2586 8.71846
2 4.35952 13.0778 8.71767
2 6.53902 15.2598 8.72054
2 8.72118 13.0783 8.71894
2 10.899 15.259 8.71884
2 13.0781 13.0779 8.71989
2 15.2604 15.2566 8.72037
1 8.92932 3.45075 15.8804
1 16.2328 0.898544 16.0981
1 2.78965 0.44596 15.6899
1 10.8827 16.2366 15.719
1 1.25613 16.3244 10.5762
1 15.4918 7.22394 11.0073
1 9.08113 12.1366 15.552
1 6.82445 9.37623 16.7045
1 8.28836 2.77535 9.98333
1 13.9548 16.0632 16.5405
1 3.23008 15.1491 15.5192
1 1.70237 4.58812 16.0234
1 16.6833 9.43311 10.6037
1 16.2222 2.72647 10.2848
1 13.0081 0.811468 10.2222
1 0.136278 7.57169 15.9293
1 12.5704 0.19666 15.7691
1 14.6704 13.6137 10.0772
1 6.84473 6.73811 10.5208
1 15.0305 11.4142 10.287
1 10.1609 5.41593 9.4576
1 15.4327 15.5221 10.9308
1 1.83418 15.2892 13.2962
1 17.2137 15.5081 14.8483
1 9.35463 14.5498 14.383
1 13.5964 3.9956 15.3357
1 5.04849 2.51556 15.871
1 4.8773 7.88372 11.5997
1 4.47595 1.15982 14.614
1 8.89335 5.72163 14.2753
1 13.7521 0.206895 12.9771
1 3.55694 13.8503 11.9
1 0.155228 2.40281 11.8905
1 4.74323 8.81597 13.5076
1 16.2565 10.8038 12.7785
1 5.39497 12.7171 11.4196
1 0.969436 9.80179 12.2347
1 7.34816 7.96463 13.1597
1 10.4494 11.9337 13.4092
1 11.6544 13.9075 16.5524
1 11.428 16.2314 13.0157
1 7.44992 9.80331 11.8916
1 0.773173 2.48504 16.506
1 12.0791 15.6801 10.4799
1 6.21772 2.1315 10.6202
1 7.39927 14.4746 12.7222
1 1.00544 10.9537 15.5709
1 4.7472 4.49854 10.8011
1 15.0152 7.12295 14.7984
1 14.5296 9.50461 15.9727
1 16.3459 0.733069 11.4825
1 13.7351 9.10892 10.8358
1 15.0123 2.99 13.9023
1 8.00397 5.95139 11.7089
1 1.93938 4.35626 13.4032
1 13.95 10.6601 14.3131
1 4.75931 11.8944 15.9032
1 3.73985 2.05893 12.7924
1 9.06199 10.0162 15.2409
1 6.55863 5.12362 14.8151
1 10.765 7.09965 15.7348
1 0.574127 6.73253 10.2267
1 7.48277 15.9136 10.4335
1 3.9869 0.802652 11.2325
1 5.24005 15.8552 14.9776
1 10.742 9.87752 14.1627
1 9.26277 17.2411 10.8249
1 11.9713 3.24789 14.3266
1 5.56904 10.3411 11.6443
1 1.33097 13.5481 12.4456
1 13.4583 7.381 12.7715
1 12.4032 8.62648 15.8014
1 5.0494 4.11494 14.4895
1 6.45267 11.3347 14.6833
1 2.75801 7.20559 15.0876
1 1.28318 1.94976 13.7709
1 15.9622 11.2929 14.7606
1 15.5723 13.8155 13.5281
1 10.1747 2.41813 13.3096
2 6.3039 1.28679 12.3735
2 2.2201 0.930121 9.55912
2 1.09268 3.55215 10.0406
2 7.54353 0.345674 12.1039
2 7.01434 16.997 15.3862
2 9.30745 15.2629 11.4544
2 11.3889 0.742771 11.9697
2 9.05252 5.37839 10.4705
2 0.943822 12.0884 11.2656
2 16.4771 10.3194 16.8302
2 16.0974 5.82777 9.6903
2 2.70992 9.79902 10.8543
2 5.19351 5.37276 16.3265
2 2.35356 11.8117 12.0669
2 6.2591 8.62737 14.6601
2 13.0997 13.3104 14.9782
2 2.85218 9.76225 13.6785
2 13.4615 2.7407 16.8142
2 11.4177 7.05087 11.5477
2 6.60278 2.34916 14.0617
2 10.683 6.20382 12.9477
2 8.42532 0.212048 13.6528
2 5.11629 14.959 13.8274
2 6.07951 9.52693 9.91278
2 1.31493 2.07942 9.87911
2 3.42413 8.77773 11.04
2 8.7042 16.368 13.995
2 6.56414 2.01889 15.8971
2 16.4059 6.33166 16.4806
2 6.76115 14.6557 11.2508
2 5.0098 17.3643 12.1587
2 10.2638 1.10339 11.2439
2 11.3589 2.82547 10.0185
2 16.1287 8.33639 14.2548
2 12.206 1.51829 13.0111
2 15.2049 4.11094 16.6896
2 14.2047 5.74525 15.1216
2 0.0399849 8.07548 13.4919
2 1.78456 6.41594 12.0766
2 2.23838 14.0761 14.5354
2 11.0021 13.143 14.9889
2 7.55991 8.04152 9.48687
2 15.0356 17.1855 10.9654
2 1.50076 12.5606 13.8711
2 7.50021 11.5392 13.5526
2 5.13074 3.22127 12.3993
2 1.20165 13.1467 10.2521
2 4.40965 11.5846 9.35479
2 14.5262 1.25537 11.4201
2 5.82611 11.8989 10.2245
2 13.3286 13.2199 12.9497
2 13.335 10.9692 10.9955
2 3.47569 16.6812 10.2305
2 10.863 1.1395 16.2731
2 13.228 15.7869 14.1379
2 16.2743 15.4921 13.7376
2 5.82958 7.33409 15.708
2 11.9151 13.8005 10.8691
2 12.4348 12.0891 12.6659
2 11.9191 8.28835 11.6189
2 2.56066 15.1507 10.0876
2 6.3517 2.76459 12.414
2 12.3242 5.80446 13.7912
2 15.3021 6.55882 12.3969
2 6.7665 14.7561 14.6825
2 3.78533 7.89814 9.49037
2 9.20708 13.9659 12.3175
2 0.687974 3.41669 14.3727
2 3.99556 10.7637 14.4118
2 4.4192 6.86447 13.2525
2 4.05696 5.82726 14.3931
2 8.00121 8.87445 14.4847
2 2.88215 5.54767 11.6939
2 1.88276 6.77466 16.012
2 0.324466 10.5244 8.86836
2 9.43052 6.79617 12.2832
2 0.774987 0.0472924 14.7882
443
Atoms. Timestep: 3
2 17.4359 0.00206916 0.00285969
2 2.17698 17.4354 2.17712
2 0.00162436 2.18034 2.1824
2 2.18167 2.17877 17.4368
1 1.08898 1.09107 1.09188
1 3.2683 1.08928 3.2679
1 1.08897 3.2684 3.27121
1 3.26854 3.27139 1.08888
2 4.36213 0.00270135 17.4373
2 6.54019 9.87249e-05 2.17802
2 4.36211 2.17882 2.1828
2 6.54214 2.18244 17.4359
1 5.45119 1.09147 1.08935
1 7.62773 1.0907 3.27009
1 5.44848 3.26844 3.27174