288
Atoms. Timestep: 0
2 0 0 0
2 2.1798 0 2.1798
2 0 2.1798 2.1798
2 2.1798 2.1798 0
1 1.0899 1.0899 1.0899
1 3.2697 1.0899 3.2697
1 1.0899 3.2697 3.2697
1 3.2697 3.2697 1.0899
2 4.3596 0 0
2 6.5394 0 2.1798
2 4.3596 2.1798 2.1798
2 6.5394 2.1798 0
1 5.4495 1.0899 1.0899
1 7.6293 1.0899 3.2697
1 5.4495 3.2697 3.2697
1 7.6293 3.2697 1.0899
2 8.7192 0 0
2 10.899 0 2.1798
2 8.7192 2.1798 2.1798
2 10.899 2.1798 0
1 9.8091 1.0899 1.0899
1 11.9889 1.0899 3.2697
1 9.8091 3.2697 3.2697
1 11.9889 3.2697 1.0899
2 13.0788 0 0
2 15.2586 0 2.1798
2 13.0788 2.1798 2.1798
2 15.2586 2.1798 0
1 14.1687 1.0899 1.0899
1 16.3485 1.0899 3.2697
1 14.1687 3.2697 3.2697
1 16.3485 3.2697 1.0899
2 0 4.3596 0
2 2.1798 4.3596 2.1798
2 0 6.5394 2.1798
2 2.1798 6.5394 0
1 1.0899 5.4495 1.0899
1 3.2697 5.4495 3.2697
1 1.0899 7.6293 3.2697
1 3.2697 7.6293 1.0899
2 4.3596 4.3596 0
2 6.5394 4.3596 2.1798
2 4.3596 6.5394 2.1798
2 6.5394 6.5394 0
1 5.4495 5.4495 1.0899
1 7.6293 5.4495 3.2697
1 5.4495 7.6293 3.2697
1 7.6293 7.6293 1.0899
2 8.7192 4.3596 0
2 10.899 4.3596 2.1798
2 8.7192 6.5394 2.1798
2 10.899 6.5394 0
1 9.8091 5.4495 1.0899
1 11.9889 5.4495 3.2697
1 9.8091 7.6293 3.2697
1 11.9889 7.6293 1.0899
2 13.0788 4.3596 0
2 15.2586 4.3596 2.1798
2 13.0788 6.5394 2.1798
2 15.2586 6.5394 0
1 14.1687 5.4495 1.0899
1 16.3485 5.4495 3.2697
1 14.1687 7.6293 3.2697
1 16.3485 7.6293 1.0899
2 0 8.7192 0
2 2.1798 8.7192 2.1798
2 0 10.899 2.1798
2 2.1798 10.899 0
1 1.0899 9.8091 1.0899
1 3.2697 9.8091 3.2697
1 1.0899 11.9889 3.2697
1 3.2697 11.9889 1.0899
2 4.3596 8.7192 0
2 6.5394 8.7192 2.1798
2 4.3596 10.899 2.1798
2 6.5394 10.899 0
1 5.4495 9.8091 1.0899
1 7.6293 9.8091 3.2697
1 5.4495 11.9889 3.2697
1 7.6293 11.9889 1.0899
2 8.7192 8.7192 0
2 10.899 8.7192 2.1798
2 8.7192 10.899 2.1798
2 10.899 10.899 0
1 9.8091 9.8091 1.0899
1 11.9889 9.8091 3.2697
1 9.8091 11.9889 3.2697
1 11.9889 11.9889 1.0899
2 13.0788 8.7192 0
2 15.2586 8.7192 2.1798
2 13.0788 10.899 2.1798
2 15.2586 10.899 0
1 14.1687 9.8091 1.0899
1 16.3485 9.8091 3.2697
1 14.1687 11.9889 3.2697
1 16.3485 11.9889 1.0899
2 0 13.0788 0
2 2.1798 13.0788 2.1798
2 0 15.2586 2.1798
2 2.1798 15.2586 0
1 1.0899 14.1687 1.0899
1 3.2697 14.1687 3.2697
1 1.0899 16.3485 3.2697
1 3.2697 16.3485 1.0899
2 4.3596 13.0788 0
2 6.5394 13.0788 2.1798
2 4.3596 15.2586 2.1798
2 6.5394 15.2586 0
1 5.4495 14.1687 1.0899
1 7.6293 14.1687 3.2697
1 5.4495 16.3485 3.2697
1 7.6293 16.3485 1.0899
2 8.7192 13.0788 0
2 10.899 13.0788 2.1798
2 8.7192 15.2586 2.1798
2 10.899 15.2586 0
1 9.8091 14.1687 1.0899
1 11.9889 14.1687 3.2697
1 9.8091 16.3485 3.2697
1 11.9889 16.3485 1.0899
2 13.0788 13.0788 0
2 15.2586 13.0788 2.1798
2 13.0788 15.2586 2.1798
2 15.2586 15.2586 0
1 14.1687 14.1687 1.0899
1 16.3485 14.1687 3.2697
1 14.1687 16.3485 3.2697
1 16.3485 16.3485 1.0899
2 0 0 4.3596
2 2.1798 0 6.5394
2 0 2.1798 6.5394
2 2.1798 2.1798 4.3596
1 1.0899 1.0899 5.4495
1 3.2697 1.0899 7.6293
1 1.0899 3.2697 7.6293
1 3.2697 3.2697 5.4495
2 4.3596 0 4.3596
2 6.5394 0 6.5394
2 4.3596 2.1798 6.5394
2 6.5394 2.1798 4.3596
1 5.4495 1.0899 5.4495
1 7.6293 1.0899 7.6293
1 5.4495 3.2697 7.6293
1 7.6293 3.2697 5.4495
2 8.7192 0 4.3596
2 10.899 0 6.5394
2 8.7192 2.1798 6.5394
2 10.899 2.1798 4.3596
1 9.8091 1.0899 5.4495
1 11.9889 1.0899 7.6293
1 9.8091 3.2697 7.6293
1 11.9889 3.2697 5.4495
2 13.0788 0 4.3596
2 15.2586 0 6.5394
2 13.0788 2.1798 6.5394
2 15.2586 2.1798 4.3596
1 14.1687 1.0899 5.4495
1 16.3485 1.0899 7.6293
1 14.1687 3.2697 7.6293
1 16.3485 3.2697 5.4495
2 0 4.3596 4.3596
2 2.1798 4.3596 6.5394
2 0 6.5394 6.5394
2 2.1798 6.5394 4.3596
1 1.0899 5.4495 5.4495
1 3.2697 5.4495 7.6293
1 1.0899 7.6293 7.6293
1 3.2697 7.6293 5.4495
2 4.3596 4.3596 4.3596
2 6.5394 4.3596 6.5394
2 4.3596 6.5394 6.5394
2 6.5394 6.5394 4.3596
1 5.4495 5.4495 5.4495
1 7.6293 5.4495 7.6293
1 5.4495 7.6293 7.6293
1 7.6293 7.6293 5.4495
2 8.7192 4.3596 4.3596
2 10.899 4.3596 6.5394
2 8.7192 6.5394 6.5394
2 10.899 6.5394 4.3596
1 9.8091 5.4495 5.4495
1 11.9889 5.4495 7.6293
1 9.8091 7.6293 7.6293
1 11.9889 7.6293 5.4495
2 13.0788 4.3596 4.3596
2 15.2586 4.3596 6.5394
2 13.0788 6.5394 6.5394
2 15.2586 6.5394 4.3596
1 14.1687 5.4495 5.4495
1 16.3485 5.4495 7.6293
1 14.1687 7.6293 7.6293
1 16.3485 7.6293 5.4495
2 0 8.7192 4.3596
2 2.1798 8.7192 6.5394
2 0 10.899 6.5394
2 2.1798 10.899 4.3596
1 1.0899 9.8091 5.4495
1 3.2697 9.8091 7.6293
1 1.0899 11.9889 7.6293
1 3.2697 11.9889 5.4495
2 4.3596 8.7192 4.3596
2 6.5394 8.7192 6.5394
2 4.3596 10.899 6.5394
2 6.5394 10.899 4.3596
1 5.4495 9.8091 5.4495
1 7.6293 9.8091 7.6293
1 5.4495 11.9889 7.6293
1 7.6293 11.9889 5.4495
2 8.7192 8.7192 4.3596
2 10.899 8.7192 6.5394
2 8.7192 10.899 6.5394
2 10.899 10.899 4.3596
1 9.8091 9.8091 5.4495
1 11.9889 9.8091 7.6293
1 9.8091 11.9889 7.6293
1 11.9889 11.9889 5.4495
2 13.0788 8.7192 4.3596
2 15.2586 8.7192 6.5394
2 13.0788 10.899 6.5394
2 15.2586 10.899 4.3596
1 14.1687 9.8091 5.4495
1 16.3485 9.8091 7.6293
1 14.1687 11.9889 7.6293
1 16.3485 11.9889 5.4495
2 0 13.0788 4.3596
2 2.1798 13.0788 6.5394
2 0 15.2586 6.5394
2 2.1798 15.2586 4.3596
1 1.0899 14.1687 5.4495
1 3.2697 14.1687 7.6293
1 1.0899 16.3485 7.6293
1 3.2697 16.3485 5.4495
2 4.3596 13.0788 4.3596
2 6.5394 13.0788 6.5394
2 4.3596 15.2586 6.5394
2 6.5394 15.2586 4.3596
1 5.4495 14.1687 5.4495
1 7.6293 14.1687 7.6293
1 5.4495 16.3485 7.6293
1 7.6293 16.3485 5.4495
2 8.7192 13.0788 4.3596
2 10.899 13.0788 6.5394
2 8.7192 15.2586 6.5394
2 10.899 15.2586 4.3596
1 9.8091 14.1687 5.4495
1 11.9889 14.1687 7.6293
1 9.8091 16.3485 7.6293
1 11.9889 16.3485 5.4495
2 13.0788 13.0788 4.3596
2 15.2586 13.0788 6.5394
2 13.0788 15.2586 6.5394
2 15.2586 15.2586 4.3596
1 14.1687 14.1687 5.4495
1 16.3485 14.1687 7.6293
1 14.1687 16.3485 7.6293
1 16.3485 16.3485 5.4495
2 0 0 8.7192
2 2.1798 2.1798 8.7192
2 4.3596 0 8.7192
2 6.5394 2.1798 8.7192
2 8.7192 0 8.7192
2 10.899 2.1798 8.7192
2 13.0788 0 8.7192
2 15.2586 2.1798 8.7192
2 0 4.3596 8.7192
2 2.1798 6.5394 8.7192
2 4.3596 4.3596 8.7192
2 6.5394 6.5394 8.7192
2 8.7192 4.3596 8.7192
2 10.899 6.5394 8.7192
2 13.0788 4.3596 8.7192
2 15.2586 6.5394 8.7192
2 0 8.7192 8.7192
2 2.1798 10.899 8.7192
2 4.3596 8.7192 8.7192
2 6.5394 10.899 8.7192
2 8.7192 8.7192 8.7192
2 10.899 10.899 8.7192
2 13.0788 8.7192 8.7192
2 15.2586 10.899 8.7192
2 0 13.0788 8.7192
2 2.1798 15.2586 8.7192
2 4.3596 13.0788 8.7192
2 6.5394 15.2586 8.7192
2 8.7192 13.0788 8.7192
2 10.899 15.2586 8.7192
2 13.0788 13.0788 8.7192
2 15.2586 15.2586 8.7192
320
Atoms. Timestep: 1
2 17.2116 0.450508 0.140616
2 2.17886 17.4374 2.17891
2 0.000541772 2.17998 2.18066
2 2.18002 2.23759 17.3048
1 1.08959 1.0903 1.09056
1 3.26923 1.08969 3.2691
1 1.08959 3.26927 3.2702
1 3.26931 3.27026 1.08957
2 4.36048 0.00089435 17.438
2 6.53966 3.28597e-05 2.1792
2 4.36044 2.17947 2.1808
2 6.54032 2.18068 17.4375
1 5.45006 1.09042 1.08972
1 7.62878 1.09017 3.26983
1 5.44916 3.26928 3.27038
1 7.62905 3.26975 1.09019
2 8.71941 5.9036e-06 17.4382
2 10.8992 17.4381 2.18028
2 8.71844 2.17987 2.17892
2 10.8991 2.17915 0.000372054
1 9.80969 1.08969 1.09008
1 11.9889 1.08937 3.26924
1 9.80917 3.26917 3.26925
1 11.9888 3.26935 1.08956
2 13.079 17.4375 0.000504117
2 15.2588 17.4382 2.17939
2 13.0796 2.17915 2.17963
2 15.2589 2.18059 0.00101064
1 14.1687 1.09019 1.09017
1 16.3481 1.08965 3.26962
1 14.1691 3.26977 3.26943
1 16.3483 3.26944 1.0901
2 17.4377 4.3595 0.000484091
2 2.17888 4.35863 2.1797
2 0.000279357 6.53932 2.18017
2 2.17894 6.53981 17.4375
1 1.09028 5.44982 1.09048
1 3.26993 5.44929 3.26926
1 1.09025 7.62995 3.26949
1 3.26959 7.62877 1.08941
2 4.35915 4.3602 17.4375
2 6.5393 4.36019 2.18027
2 4.35928 6.53981 2.17913
2 6.53844 6.54022 0.000367692
1 5.45002 5.44913 1.09042
1 7.62926 5.44925 3.26945
1 5.44993 7.62948 3.27024
1 7.62933 7.62947 1.09049
2 8.72002 4.35905 0.000572238
2 10.8994 4.35961 2.18025
2 8.71911 6.53985 2.18053
2 10.898 6.53867 17.4381
1 9.80878 5.44981 1.08934
1 11.9895 5.44965 3.26979
1 9.80855 7.62881 3.26944
1 11.9884 7.62879 1.08958
2 13.0793 4.35923 7.88524e-05
2 15.2583 4.36039 2.1795
2 13.0784 6.53862 2.18082
2 15.2595 6.53844 0.000579037
1 14.1692 5.4497 1.08981
1 16.3485 5.4496 3.26938
1 14.1688 7.6295 3.27012
1 16.3483 7.62962 1.08928
2 17.3788 8.6451 0.288688
2 2.17963 8.71948 2.17913
2 6.80626e-05 10.8998 2.17976
2 2.18029 10.8986 17.4379
1 1.09047 9.80925 1.08994
1 3.26996 9.80963 3.2693
1 1.08999 11.9885 3.26942
1 3.27001 11.9883 1.09005
2 4.3604 8.71856 17.4384
2 6.5398 8.7183 2.18077
2 4.36005 10.8997 2.17921
2 6.53839 10.899 0.000839214
1 5.44951 9.80957 1.08968
1 7.62901 9.8085 3.26954
1 5.44955 11.9891 3.27004
1 7.62885 11.9892 1.08988
2 8.71853 8.71903 0.000398929
2 10.8982 8.71997 2.17921
2 8.71838 10.8985 2.17957
2 10.8997 10.8987 0.000747456
1 9.80848 9.80971 1.08958
1 11.9893 9.80896 3.26977
1 9.80971 11.989 3.26989
1 11.9888 11.9885 1.08932
2 13.0791 8.71832 17.4374
2 15.2581 8.71961 2.17885
2 13.0786 10.8989 2.18031
2 15.2585 10.8997 17.4383
1 14.1686 9.80953 1.0896
1 16.3481 9.80915 3.26998
1 14.1681 11.9883 3.27018
1 16.3485 11.989 1.08936
2 17.4383 13.079 17.4375
2 2.17917 13.078 2.18032
2 0.000574814 15.259 2.18007
2 2.17998 15.258 17.4383
1 1.08939 14.1681 1.08956
1 3.26996 14.1691 3.27036
1 1.08978 16.3483 3.26966
1 3.27005 16.3491 1.09057
2 4.35866 13.0793 0.000504095
2 6.53921 13.0796 2.17887
2 4.35927 15.2586 2.18036
2 6.53866 15.2594 17.4376
1 5.44974 14.1693 1.08934
1 7.62908 14.169 3.27014
1 5.44939 16.3484 3.27012
1 7.62938 16.3491 1.09028
2 8.71996 13.0781 17.4384
2 10.8993 13.0781 2.1791
2 8.71929 15.259 2.18059
2 10.9 15.2582 17.4381
1 9.80931 14.1681 1.08946
1 11.9888 14.1689 3.26988
1 9.80894 16.3487 3.26954
1 11.9888 16.3484 1.08933
2 13.0797 13.0789 17.4377
2 15.2588 13.0779 2.18049
2 13.0785 15.2591 2.18067
2 15.2594 15.2591 17.4379
1 14.1682 14.1689 1.08984
1 16.3482 14.1682 3.26946
1 14.1694 16.349 3.26969
1 16.348 16.3486 1.08983
2 17.4378 3.81958e-05 4.35923
2 2.17995 17.4379 6.53892
2 17.4375 2.18032 6.53977
2 2.17937 2.17919 4.35986
1 1.08958 1.09052 5.44917
1 3.26953 1.08967 7.62946
1 1.08925 3.26978 7.62969
1 3.26926 3.26995 5.44915
2 4.36046 17.4375 4.35941
2 6.53915 17.4379 6.5389
2 4.35931 2.17964 6.54041
2 6.53957 2.18055 4.3601
1 5.44975 1.0899 5.44974
1 7.62898 1.09046 7.62945
1 5.45011 3.27012 7.62952
1 7.62949 3.27034 5.44933
2 8.71927 17.4375 4.36032
2 10.8989 0.000410694 6.5392
2 8.71993 2.18032 6.54014
2 10.8989 2.17952 4.35904
1 9.80888 1.08971 5.44895
1 11.9886 1.08928 7.62916
1 9.80972 3.2699 7.62877
1 11.9889 3.26936 5.44934
2 13.0781 6.97468e-05 4.35882
2 15.2585 17.4375 6.53993
2 13.0786 2.18046 6.53841
2 15.2578 2.17959 4.3599
1 14.1681 1.08931 5.44929
1 16.3484 1.08931 7.62919
1 14.1682 3.27025 7.62938
1 16.348 3.26931 5.45014
2 17.438 4.36054 4.36033
2 2.18073 4.35951 6.53983
2 0.000217261 6.53873 6.54039
2 2.18023 6.54032 4.35964
1 1.0901 5.44906 5.44929
1 3.27031 5.44939 7.6293
1 1.08967 7.62946 7.62873
1 3.27003 7.62887 5.45008
2 4.35946 4.35936 4.36057
2 6.53881 4.35879 6.53903
2 4.35949 6.53909 6.53883
2 6.54003 6.53969 4.35967
1 5.44926 5.44952 5.44926
1 7.62978 5.45011 7.62894
1 5.4497 7.62974 7.62899
1 7.62902 7.629 5.44912
2 8.71819 4.36005 4.36051
2 10.8994 4.36013 6.54025
2 8.71837 6.53931 6.53899
2 10.8998 6.53969 4.35906
1 9.80856 5.44952 5.4492
1 11.9104 5.47055 7.70004
1 9.80941 7.62904 7.62921
1 11.989 7.62971 5.45008
2 13.0797 4.35973 4.35894
2 15.2595 4.35897 6.54017
2 13.0796 6.53887 6.53981
2 15.2584 6.53947 4.35894
1 14.1692 5.44923 5.45008
1 16.3481 5.44962 7.62955
1 14.1682 7.62899 7.62988
1 16.3491 7.62866 5.44988
2 0.000495201 8.71947 4.35988
2 2.18053 8.71868 6.53959
2 0.000985729 10.8987 6.53862
2 2.18023 10.8997 4.36047
1 1.09045 9.80856 5.44973
1 3.27008 9.80913 7.62963
1 1.0905 11.9895 7.62991
1 3.27019 11.9892 5.44901
2 4.36007 8.71887 4.35998
2 6.53923 8.71834 6.54003
2 4.3593 10.8985 6.53907
2 6.53963 10.8994 4.35914
1 5.44913 9.80932 5.44932
1 7.62987 9.80972 7.62938
1 5.44965 11.9895 7.62914
1 7.62865 11.989 5.44983
2 8.72014 8.71937 4.36049
2 10.8983 8.71939 6.53973
2 8.71819 10.8989 6.5404
2 10.8984 10.8991 4.35962
1 9.8095 9.80906 5.44987
1 11.9894 9.80892 7.62988
1 9.80895 11.9889 7.62944
1 11.9885 11.9886 5.44925
2 13.0788 8.71842 4.35934
2 15.2588 8.71833 6.54025
2 13.0782 10.8995 6.53892
2 15.2588 10.899 4.35888
1 14.1683 9.80845 5.44942
1 16.3485 9.80906 7.62871
1 14.1685 11.9893 7.62913
1 16.3479 11.9885 5.44932
2 3.12222e-05 13.0785 4.35957
2 2.17912 13.0797 6.53868
2 0.000141215 15.2587 6.5388
2 2.17947 15.2578 4.36034
1 1.0895 14.1692 5.45014
1 3.26932 14.1691 7.62894
1 1.08942 16.3488 7.62885
1 3.26967 16.3482 5.44948
2 4.36001 13.0793 4.36024
2 6.53869 13.0789 6.53847
2 4.35924 15.258 6.54008
2 6.53841 15.2592 4.35978
1 5.44975 14.1691 5.44913
1 7.6298 14.1685 7.62974
1 5.44921 16.348 7.62965
1 7.62908 16.3479 5.44907
2 8.71957 13.0792 4.36027
2 10.8981 13.0795 6.53924
2 8.71829 15.2579 6.54027
2 10.899 15.259 4.35902
1 9.80893 14.1692 5.44898
1 11.9894 14.169 7.62872
1 9.80922 16.349 7.62888
1 11.9889 16.3479 5.44943
2 13.0796 13.0792 4.36019
2 15.2588 13.0794 6.54033
2 13.0787 15.2579 6.53888
2 15.2585 15.2584 4.36015
1 14.169 14.1691 5.44937
1 16.3478 14.1687 7.62871
1 14.1686 16.349 7.62922
1 16.3489 16.3482 5.44996
2 0.000816586 17.4378 8.71912
2 2.1807 2.18053 8.71949
2 4.35897 17.4381 8.71942
2 6.53996 2.17979 8.7195
2 8.71901 17.4374 8.71939
2 10.899 2.18024 8.71943
2 13.0785 0.000879457 8.7186
2 15.2581 2.17941 8.71912
2 0.187327 4.63847 9.04331
2 2.25889 6.59333 8.40821
2 4.3602 4.35997 8.71888
2 6.53989 6.53986 8.71821
2 8.72002 4.36024 8.71885
2 10.8997 6.5392 8.71964
2 13.0785 4.35941 8.71859
2 15.2582 6.53972 8.72018
2 0.000795639 8.71831 8.7187
2 2.17994 10.8987 8.72021
2 4.35968 8.71867 8.72003
2 6.5391 10.8988 8.71836
2 8.71908 8.71832 8.71875
2 10.8995 10.8992 8.71939
2 13.0778 8.71917 8.71993
2 15.2577 10.8989 8.71849
2 0.000763617 13.0785 8.71832
2 2.17975 15.2586 8.7189
2 4.35957 13.0783 8.71844
2 6.5392 15.2592 8.71988
2 8.72019 13.0785 8.71908
2 10.942 15.2774 8.31878
2 13.0784 13.0783 8.71955
2 15.2595 15.2576 8.71978
1 10.883 16.2358 15.7194
1 14.7541 7.00004 10.5956
1 9.08151 12.1363 15.5523
1 1.70292 4.58804 16.0231
1 16.6836 9.43316 10.6039
1 15.9776 2.8165 10.3016
1 4.48627 14.5258 15.7111
1 8.96137 4.09966 15.7961
1 1.90928 2.66538 15.1687
1 14.671 13.6145 10.0771
1 15.4327 15.5227 10.9306
1 9.35454 14.5496 14.3827
1 12.1155 14.8671 13.5965
2 5.04792 2.51601 15.8713
2 15.6597 12.4961 11.3504
1 13.8646 10.9284 11.6077
1 4.4751 1.15983 14.6148
2 13.8729 10.0971 9.66929
2 13.2925 4.08691 16.3249
2 3.90409 12.7651 15.4779
2 13.2835 9.40859 16.1446
2 0.479867 17.3986 16.294
2 8.32274 10.308 14.6753
2 1.53958 14.5753 9.52977
2 11.7387 16.6604 12.9366
2 0.944556 6.21246 9.19731
2 16.8306 3.54299 12.3002
2 10.8444 13.0629 16.4433
2 0.730522 1.25537 15.9018
2 5.21485 0.566241 12.8927
2 13.099 13.3108 14.9783
2 9.66243 10.085 14.1933
349
Atoms. Timestep: 2
2 17.2107 0.451114 0.141593
2 2.17791 17.4364 2.17801
2 0.00108491 2.18016 2.18153
2 2.1806 2.23726 17.3043
1 1.08929 1.09071 1.09122
1 3.26877 1.08949 3.2685
1 1.08928 3.26883 3.27071
1 3.26893 3.27082 1.08922
2 4.36135 0.0017886 17.4377
2 6.53993 6.57561e-05 2.17861
2 4.36127 2.17914 2.1818
2 6.54123 2.18157 17.4367
1 5.45063 1.09095 1.08954
1 7.62825 1.09044 3.26996
1 5.44882 3.26886 3.27106
1 7.62879 3.2698 1.09047
2 8.71963 1.182e-05 17.438
2 10.8994 17.4377 2.18075
2 8.71768 2.17994 2.17804
2 10.8993 2.17849 0.000772134
1 9.81028 1.08948 1.09025
1 11.9888 1.08884 3.26879
1 9.80925 3.26865 3.26881
1 11.9887 3.269 1.08921
2 13.0791 17.4367 0.00103627
2 15.2589 17.438 2.17897
2 13.0804 2.1785 2.17945
2 15.2592 2.18139 0.00204928
1 14.1687 1.09048 1.09043
1 16.3477 1.0894 3.26954
1 14.1695 3.26983 3.26916
1 16.3481 3.26918 1.0903
2 17.4369 4.35941 0.000961564
2 2.17796 4.35765 2.1796
2 0.000556444 6.53924 2.18054
2 2.1781 6.54025 17.4367
1 1.09066 5.45015 1.09107
1 3.27016 5.44908 3.26882
1 1.09061 7.63059 3.26929
1 3.26948 7.62824 1.08892
2 4.35869 4.3608 17.4366
2 6.5392 4.36079 2.18074
2 4.35896 6.54023 2.17846
2 6.53747 6.54104 0.000763468
1 5.45053 5.44877 1.09093
1 7.62922 5.44899 3.26919
1 5.45035 7.62967 3.27078
1 7.62936 7.62965 1.09106
2 8.72083 4.3585 0.00119649
2 10.8997 4.35962 2.1807
2 8.71903 6.54031 2.18126
2 10.897 6.53794 17.4378
1 9.80847 5.45012 1.08878
1 11.9901 5.4498 3.26987
1 9.808 7.62832 3.26918
1 11.988 7.62828 1.08925
2 13.0797 4.35889 0.000374881
2 15.2579 4.36118 2.17919
2 13.0779 6.53783 2.18184
2 15.2603 6.53749 0.00118576
1 14.1697 5.4499 1.08971
1 16.3486 5.4497 3.26905
1 14.1689 7.62969 3.27054
1 16.348 7.62993 1.08867
2 17.3796 8.64573 0.289483
2 2.17946 8.71975 2.17845
2 0.000136641 10.9006 2.17971
2 2.18078 10.8982 17.4375
1 1.09103 9.8094 1.08998
1 3.27022 9.81016 3.26889
1 1.09008 11.9881 3.26915
1 3.27033 11.9877 1.0902
2 4.3612 8.71792 2.44847e-05
2 6.5402 8.7174 2.18175
2 4.36049 10.9003 2.17861
2 6.53738 10.899 0.00170641
1 5.44951 9.81004 1.08944
1 7.62872 9.8079 3.26937
1 5.44961 11.9894 3.27038
1 7.6284 11.9895 1.08984
2 8.71785 8.71886 0.0008259
2 10.8973 8.72075 2.17862
2 8.71756 10.898 2.17934
2 10.9004 10.8984 0.00152289
1 9.80785 9.81031 1.08924
1 11.9897 9.80883 3.26984
1 9.81032 11.9892 3.27007
1 11.9886 11.9881 1.08872
2 13.0794 8.71746 17.4365
2 15.2575 8.72001 2.1779
2 13.0784 10.8988 2.18082
2 15.2584 10.9003 17.4381
1 14.1685 9.80995 1.0893
1 16.3477 9.80919 3.27027
1 14.1675 11.9877 3.27067
1 16.3486 11.989 1.08881
2 17.1996 13.1643 0.249761
2 2.17855 13.0771 2.18084
2 0.00115054 15.2595 2.18034
2 2.18016 15.2574 17.4382
1 1.08889 14.1675 1.0892
1 3.27021 14.1694 3.27103
1 1.08966 16.348 3.26962
1 3.27039 16.3497 1.09122
2 4.35773 13.0798 0.00104128
2 6.53901 13.0804 2.17795
2 4.35895 15.2586 2.18092
2 6.53793 15.2603 17.4369
1 5.44997 14.1699 1.08878
1 7.62885 14.1694 3.27058
1 5.44927 16.3484 3.27054
1 7.62946 16.3497 1.09065
2 8.72071 13.0774 17.4383
2 10.8997 13.0775 2.17839
2 8.71938 15.2593 2.18138
2 10.9009 15.2579 17.4377
1 9.80953 14.1675 1.08901
1 11.9887 14.1691 3.27006
1 9.80877 16.3488 3.26938
1 11.9887 16.3483 1.08876
2 13.0806 13.0791 17.4369
2 15.2589 13.077 2.18118
2 13.0782 15.2595 2.18155
2 15.2601 15.2595 17.4375
1 14.1677 14.169 1.08977
1 16.348 14.1677 3.26921
1 14.17 16.3495 3.26967
1 16.3476 16.3487 1.08975
2 17.4372 7.63698e-05 4.35885
2 2.1801 17.4373 6.53843
2 17.4365 2.18085 6.54015
2 2.17894 2.17859 4.36011
1 1.08927 1.09114 5.44883
1 3.26936 1.08945 7.62964
1 1.08861 3.26986 7.63009
1 3.26882 3.2702 5.44881
2 4.36133 17.4365 4.35921
2 6.5389 17.4374 6.53839
2 4.35903 2.17948 6.54142
2 6.53973 2.18129 4.36061
1 5.45001 1.0899 5.44997
1 7.62866 1.09102 7.62962
1 5.45072 3.27053 7.62974
1 7.62969 3.27098 5.44915
2 8.71933 17.4367 4.36103
2 10.8988 0.000823001 6.539
2 8.72067 2.18083 6.54088
2 10.8988 2.17923 4.35847
1 9.80865 1.08951 5.44841
1 11.9883 1.08867 7.62904
1 9.81034 3.27009 7.62825
1 11.9889 3.26902 5.44918
2 13.0774 0.000139389 4.35805
2 15.2583 17.4367 6.54046
2 13.0785 2.18112 6.53742
2 15.257 2.17938 4.36021
1 14.1676 1.08871 5.44908
1 16.3482 1.08872 7.6291
1 14.1676 3.2708 7.62947
1 16.3475 3.26893 5.45079
2 17.4376 4.36148 4.36105
2 2.18167 4.35941 6.54027
2 0.000432602 6.53806 6.54137
2 2.18067 6.54124 4.35968
1 1.0903 5.44862 5.44908
1 3.27093 5.44927 7.6293
1 1.08942 7.62964 7.62816
1 3.27035 7.62844 5.45066
2 4.35931 4.35911 4.36154
2 6.53822 4.35798 6.53867
2 4.35938 6.53879 6.53825
2 6.54066 6.53998 4.35974
1 5.44903 5.44953 5.44902
1 7.63025 5.45073 7.6286
1 5.4499 7.63018 7.62869
1 7.62874 7.6287 5.44873
2 8.71719 4.3605 4.36142
2 10.8997 4.36066 6.54111
2 8.71753 6.53921 6.53858
2 10.9007 6.53999 4.35853
1 9.80803 5.44953 5.44889
1 11.9109 5.47112 7.70023
1 9.80972 7.62878 7.62912
1 11.989 7.63012 5.45066
2 13.0806 4.35985 4.35827
2 15.2603 4.35834 6.54094
2 13.0804 6.53835 6.54023
2 15.2581 6.53954 4.35828
1 14.1696 5.44895 5.45066
1 16.3478 5.44975 7.62981
1 14.1676 7.62869 7.63047
1 16.3497 7.62802 5.45026
2 0.000990312 8.71974 4.36017
2 2.18126 8.71816 6.53978
2 0.0019713 10.8984 6.53784
2 2.18067 10.9004 4.36135
1 1.091 9.80802 5.44995
1 3.27046 9.80916 7.62997
1 1.0911 11.99 7.63053
1 3.27068 11.9895 5.44852
2 4.36054 8.71855 4.36035
2 6.53907 8.71748 6.54065
2 4.35901 10.8981 6.53874
2 6.53987 10.8998 4.35868
1 5.44875 9.80953 5.44913
1 7.63045 9.81033 7.62947
1 5.44979 11.9901 7.62898
1 7.62799 11.9892 5.45015
2 8.72108 8.71955 4.36139
2 10.8976 8.71958 6.54005
2 8.71719 10.8988 6.54141
2 10.8978 10.8991 4.35964
1 9.8099 9.80902 5.45025
1 11.9899 9.80873 7.63046
1 9.80879 11.9889 7.62959
1 11.9881 11.9882 5.449
2 13.0789 8.71765 4.35909
2 15.2589 8.71746 6.54109
2 13.0775 10.9001 6.53845
2 15.259 10.8991 4.35816
1 14.168 9.80781 5.44934
1 16.3485 9.80901 7.62813
1 14.1684 11.9897 7.62896
1 16.3474 11.9881 5.44914
2 6.24174e-05 13.0783 4.35954
2 2.17843 13.0807 6.53796
2 0.000282329 15.2589 6.5382
2 2.17913 15.2571 4.36109
1 1.08909 14.1697 5.45079
1 3.26895 14.1694 7.62859
1 1.08894 16.3491 7.62842
1 3.26964 16.3479 5.44946
2 4.36042 13.0797 4.36088
2 6.53798 13.079 6.53754
2 4.35888 15.2573 6.54075
2 6.53742 15.2597 4.35997
1 5.45 14.1695 5.44876
1 7.6303 14.1683 7.63018
1 5.44892 16.3476 7.63002
1 7.62886 16.3473 5.44863
2 8.71993 13.0797 4.36093
2 10.8973 13.0801 6.53908
2 8.71739 15.2572 6.54114
2 10.899 15.2594 4.35845
1 9.80875 14.1697 5.44846
1 11.99 14.1694 7.62813
1 9.80933 16.3494 7.62845
1 11.9889 16.3472 5.44936
2 13.0805 13.0795 4.36078
2 15.259 13.0801 6.54126
2 13.0786 15.2571 6.53835
2 15.2585 15.2581 4.3607
1 14.1692 14.1696 5.44924
1 16.3472 14.1687 7.62812
1 14.1685 16.3494 7.62914
1 16.3493 16.3479 5.45042
2 0.00163303 17.4372 8.71901
2 2.1816 2.18126 8.71975
2 4.35834 17.4377 8.71961
2 6.54052 2.17977 8.71976
2 8.71882 17.4364 8.71955
2 10.899 2.18068 8.71963
2 13.0781 0.00175879 8.71797
2 15.2575 2.17902 8.71903
2 0.188296 4.63866 9.04253
2 2.25899 6.59276 8.4082
2 4.3608 4.36035 8.71854
2 6.54038 6.54031 8.7172
2 8.72085 4.36088 8.71848
2 11.125 6.8108 8.5905
2 13.0783 4.35922 8.71794
2 15.2577 6.54007 8.72115
2 0.00157165 8.71745 8.71821
2 2.18008 10.8984 8.72119
2 4.35976 8.71815 8.72083
2 6.5489 10.6354 8.89341
2 8.71896 8.71744 8.71828
2 10.9 10.8995 8.71954
2 13.0768 8.71921 8.72069
2 14.8455 10.9146 8.8259
2 0.00152706 13.0783 8.71741
2 2.28583 15.1373 8.51977
2 4.53685 13.2698 8.55757
2 6.53899 15.2598 8.72052
2 8.72118 13.0783 8.71894
2 10.942 15.2776 8.31866
2 13.0781 13.0779 8.71989
2 15.2604 15.2566 8.72038
1 11.2699 15.9902 15.6651
1 14.7631 7.35532 10.6022
1 9.08106 12.136 15.5522
1 1.70287 4.58788 16.0226
1 16.6835 9.43334 10.6039
1 15.9778 2.81695 10.3017
1 4.4865 14.5254 15.7109
1 8.96148 4.09955 15.7963
1 1.90033 2.24459 15.3034
1 14.2262 13.6763 10.2782
1 15.6958 15.6488 10.8486
1 9.3548 14.55 14.3826
1 12.1155 14.8665 13.5968
2 5.04754 2.51549 15.8716
2 15.659 12.496 11.3502
1 13.8644 10.9282 11.6082
1 4.47492 1.15964 14.6146
2 13.8718 10.0966 9.66891
2 13.2698 4.44211 16.0131
2 3.90296 12.7647 15.4786
2 12.963 9.32717 15.9614
2 0.480123 17.3992 16.2945
2 8.32307 10.3087 14.6757
2 1.54028 14.5756 9.53034
2 12.31 16.5269 12.6981
2 0.944958 6.21242 9.19736
2 16.8305 3.54376 12.3012
2 10.8445 13.0637 16.444
2 0.730166 1.25595 15.9015
2 5.21522 0.565696 12.8929
2 13.0993 13.3117 14.9788
2 9.66219 10.0848 14.1936
1 1.17988 2.76782 10.5541
1 6.01062 17.3394 9.91389
1 6.9414 1.26859 11.5347
1 5.60854 8.20882 10.44
1 2.50973 15.0062 14.6723
1 7.45032 9.80365 11.8914
1 1.0759 16.4411 14.9216
1 13.6107 15.9899 16.0594
1 1.00605 10.9535 15.5714
1 4.74714 4.4985 10.8016
2 14.9449 14.3544 12.2729
2 6.29273 9.40472 9.72174
2 1.95556 13.131 9.17627
2 16.4064 6.33222 16.4795
2 5.93418 5.5734 10.5691
2 8.51277 9.4532 16.0543
2 8.13364 2.40562 9.03956
2 3.83021 9.12817 11.6145
2 11.0021 13.1438 14.9893
2 7.5602 8.04171 9.48672
2 15.0354 17.1859 10.965
2 7.50023 11.5386 13.5529
2 6.40657 10.5021 14.9908
2 4.40931 11.584 9.35405
2 15.6212 10.9314 10.5006
2 11.7004 13.43 13.1133
2 17.0672 4.81805 10.4761
2 5.73784 1.57454 9.32332
2 3.47581 16.6816 10.2296
