288
Atoms. Timestep: 0
2 0 0 0
2 2.1798 0 2.1798
2 0 2.1798 2.1798
2 2.1798 2.1798 0
1 1.0899 1.0899 1.0899
1 3.2697 1.0899 3.2697
1 1.0899 3.2697 3.2697
1 3.2697 3.2697 1.0899
2 4.3596 0 0
2 6.5394 0 2.1798
2 4.3596 2.1798 2.1798
2 6.5394 2.1798 0
1 5.4495 1.0899 1.0899
1 7.6293 1.0899 3.2697
1 5.4495 3.2697 3.2697
1 7.6293 3.2697 1.0899
2 8.7192 0 0
2 10.899 0 2.1798
2 8.7192 2.1798 2.1798
2 10.899 2.1798 0
1 9.8091 1.0899 1.0899
1 11.9889 1.0899 3.2697
1 9.8091 3.2697 3.2697
1 11.9889 3.2697 1.0899
2 13.0788 0 0
2 15.2586 0 2.1798
2 13.0788 2.1798 2.1798
2 15.2586 2.1798 0
1 14.1687 1.0899 1.0899
1 16.3485 1.0899 3.2697
1 14.1687 3.2697 3.2697
1 16.3485 3.2697 1.0899
2 0 4.3596 0
2 2.1798 4.3596 2.1798
2 0 6.5394 2.1798
2 2.1798 6.5394 0
1 1.0899 5.4495 1.0899
1 3.2697 5.4495 3.2697
1 1.0899 7.6293 3.2697
1 3.2697 7.6293 1.0899
2 4.3596 4.3596 0
2 6.5394 4.3596 2.1798
2 4.3596 6.5394 2.1798
2 6.5394 6.5394 0
1 5.4495 5.4495 1.0899
1 7.6293 5.4495 3.2697
1 5.4495 7.6293 3.2697
1 7.6293 7.6293 1.0899
2 8.7192 4.3596 0
2 10.899 4.3596 2.1798
2 8.7192 6.5394 2.1798
2 10.899 6.5394 0
1 9.8091 5.4495 1.0899
1 11.9889 5.4495 3.2697
1 9.8091 7.6293 3.2697
1 11.9889 7.6293 1.0899
2 13.0788 4.3596 0
2 15.2586 4.3596 2.1798
2 13.0788 6.5394 2.1798
2 15.2586 6.5394 0
1 14.1687 5.4495 1.0899
1 16.3485 5.4495 3.2697
1 14.1687 7.6293 3.2697
1 16.3485 7.6293 1.0899
2 0 8.7192 0
2 2.1798 8.7192 2.1798
2 0 10.899 2.1798
2 2.1798 10.899 0
1 1.0899 9.8091 1.0899
1 3.2697 9.8091 3.2697
1 1.0899 11.9889 3.2697
1 3.2697 11.9889 1.0899
2 4.3596 8.7192 0
2 6.5394 8.7192 2.1798
2 4.3596 10.899 2.1798
2 6.5394 10.899 0
1 5.4495 9.8091 1.0899
1 7.6293 9.8091 3.2697
1 5.4495 11.9889 3.2697
1 7.6293 11.9889 1.0899
2 8.7192 8.7192 0
2 10.899 8.7192 2.1798
2 8.7192 10.899 2.1798
2 10.899 10.899 0
1 9.8091 9.8091 1.0899
1 11.9889 9.8091 3.2697
1 9.8091 11.9889 3.2697
1 11.9889 11.9889 1.0899
2 13.0788 8.7192 0
2 15.2586 8.7192 2.1798
2 13.0788 10.899 2.1798
2 15.2586 10.899 0
1 14.1687 9.8091 1.0899
1 16.3485 9.8091 3.2697
1 14.1687 11.9889 3.2697
1 16.3485 11.9889 1.0899
2 0 13.0788 0
2 2.1798 13.0788 2.1798
2 0 15.2586 2.1798
2 2.1798 15.2586 0
1 1.0899 14.1687 1.0899
1 3.2697 14.1687 3.2697
1 1.0899 16.3485 3.2697
1 3.2697 16.3485 1.0899
2 4.3596 13.0788 0
2 6.5394 13.0788 2.1798
2 4.3596 15.2586 2.1798
2 6.5394 15.2586 0
1 5.4495 14.1687 1.0899
1 7.6293 14.1687 3.2697
1 5.4495 16.3485 3.2697
1 7.6293 16.3485 1.0899
2 8.7192 13.0788 0
2 10.899 13.0788 2.1798
2 8.7192 15.2586 2.1798
2 10.899 15.2586 0
1 9.8091 14.1687 1.0899
1 11.9889 14.1687 3.2697
1 9.8091 16.3485 3.2697
1 11.9889 16.3485 1.0899
2 13.0788 13.0788 0
2 15.2586 13.0788 2.1798
2 13.0788 15.2586 2.1798
2 15.2586 15.2586 0
1 14.1687 14.1687 1.0899
1 16.3485 14.1687 3.2697
1 14.1687 16.3485 3.2697
1 16.3485 16.3485 1.0899
2 0 0 4.3596
2 2.1798 0 6.5394
2 0 2.1798 6.5394
2 2.1798 2.1798 4.3596
1 1.0899 1.0899 5.4495
1 3.2697 1.0899 7.6293
1 1.0899 3.2697 7.6293
1 3.2697 3.2697 5.4495
2 4.3596 0 4.3596
2 6.5394 0 6.5394
2 4.3596 2.1798 6.5394
2 6.5394 2.1798 4.3596
1 5.4495 1.0899 5.4495
1 7.6293 1.0899 7.6293
1 5.4495 3.2697 7.6293
1 7.6293 3.2697 5.4495
2 8.7192 0 4.3596
2 10.899 0 6.5394
2 8.7192 2.1798 6.5394
2 10.899 2.1798 4.3596
1 9.8091 1.0899 5.4495
1 11.9889 1.0899 7.6293
1 9.8091 3.2697 7.6293
1 11.9889 3.2697 5.4495
2 13.0788 0 4.3596
2 15.2586 0 6.5394
2 13.0788 2.1798 6.5394
2 15.2586 2.1798 4.3596
1 14.1687 1.0899 5.4495
1 16.3485 1.0899 7.6293
1 14.1687 3.2697 7.6293
1 16.3485 3.2697 5.4495
2 0 4.3596 4.3596
2 2.1798 4.3596 6.5394
2 0 6.5394 6.5394
2 2.1798 6.5394 4.3596
1 1.0899 5.4495 5.4495
1 3.2697 5.4495 7.6293
1 1.0899 7.6293 7.6293
1 3.2697 7.6293 5.4495
2 4.3596 4.3596 4.3596
2 6.5394 4.3596 6.5394
2 4.3596 6.5394 6.5394
2 6.5394 6.5394 4.3596
1 5.4495 5.4495 5.4495
1 7.6293 5.4495 7.6293
1 5.4495 7.6293 7.6293
1 7.6293 7.6293 5.4495
2 8.7192 4.3596 4.3596
2 10.899 4.3596 6.5394
2 8.7192 6.5394 6.5394
2 10.899 6.5394 4.3596
1 9.8091 5.4495 5.4495
1 11.9889 5.4495 7.6293
1 9.8091 7.6293 7.6293
1 11.9889 7.6293 5.4495
2 13.0788 4.3596 4.3596
2 15.2586 4.3596 6.5394
2 13.0788 6.5394 6.5394
2 15.2586 6.5394 4.3596
1 14.1687 5.4495 5.4495
1 16.3485 5.4495 7.6293
1 14.1687 7.6293 7.6293
1 16.3485 7.6293 5.4495
2 0 8.7192 4.3596
2 2.1798 8.7192 6.5394
2 0 10.899 6.5394
2 2.1798 10.899 4.3596
1 1.0899 9.8091 5.4495
1 3.2697 9.8091 7.6293
1 1.0899 11.9889 7.6293
1 3.2697 11.9889 5.4495
2 4.3596 8.7192 4.3596
2 6.5394 8.7192 6.5394
2 4.3596 10.899 6.5394
2 6.5394 10.899 4.3596
1 5.4495 9.8091 5.4495
1 7.6293 9.8091 7.6293
1 5.4495 11.9889 7.6293
1 7.6293 11.9889 5.4495
2 8.7192 8.7192 4.3596
2 10.899 8.7192 6.5394
2 8.7192 10.899 6.5394
2 10.899 10.899 4.3596
1 9.8091 9.8091 5.4495
1 11.9889 9.8091 7.6293
1 9.8091 11.9889 7.6293
1 11.9889 11.9889 5.4495
2 13.0788 8.7192 4.3596
2 15.2586 8.7192 6.5394
2 13.0788 10.899 6.5394
2 15.2586 10.899 4.3596
1 14.1687 9.8091 5.4495
1 16.3485 9.8091 7.6293
1 14.1687 11.9889 7.6293
1 16.3485 11.9889 5.4495
2 0 13.0788 4.3596
2 2.1798 13.0788 6.5394
2 0 15.2586 6.5394
2 2.1798 15.2586 4.3596
1 1.0899 14.1687 5.4495
1 3.2697 14.1687 7.6293
1 1.0899 16.3485 7.6293
1 3.2697 16.3485 5.4495
2 4.3596 13.0788 4.3596
2 6.5394 13.0788 6.5394
2 4.3596 15.2586 6.5394
2 6.5394 15.2586 4.3596
1 5.4495 14.1687 5.4495
1 7.6293 14.1687 7.6293
1 5.4495 16.3485 7.6293
1 7.6293 16.3485 5.4495
2 8.7192 13.0788 4.3596
2 10.899 13.0788 6.5394
2 8.7192 15.2586 6.5394
2 10.899 15.2586 4.3596
1 9.8091 14.1687 5.4495
1 11.9889 14.1687 7.6293
1 9.8091 16.3485 7.6293
1 11.9889 16.3485 5.4495
2 13.0788 13.0788 4.3596
2 15.2586 13.0788 6.5394
2 13.0788 15.2586 6.5394
2 15.2586 15.2586 4.3596
1 14.1687 14.1687 5.4495
1 16.3485 14.1687 7.6293
1 14.1687 16.3485 7.6293
1 16.3485 16.3485 5.4495
2 0 0 8.7192
2 2.1798 2.1798 8.7192
2 4.3596 0 8.7192
2 6.5394 2.1798 8.7192
2 8.7192 0 8.7192
2 10.899 2.1798 8.7192
2 13.0788 0 8.7192
2 15.2586 2.1798 8.7192
2 0 4.3596 8.7192
2 2.1798 6.5394 8.7192
2 4.3596 4.3596 8.7192
2 6.5394 6.5394 8.7192
2 8.7192 4.3596 8.7192
2 10.899 6.5394 8.7192
2 13.0788 4.3596 8.7192
2 15.2586 6.5394 8.7192
2 0 8.7192 8.7192
2 2.1798 10.899 8.7192
2 4.3596 8.7192 8.7192
2 6.5394 10.899 8.7192
2 8.7192 8.7192 8.7192
2 10.899 10.899 8.7192
2 13.0788 8.7192 8.7192
2 15.2586 10.899 8.7192
2 0 13.0788 8.7192
2 2.1798 15.2586 8.7192
2 4.3596 13.0788 8.7192
2 6.5394 15.2586 8.7192
2 8.7192 13.0788 8.7192
2 10.899 15.2586 8.7192
2 13.0788 13.0788 8.7192
2 15.2586 15.2586 8.7192
271
Atoms. Timestep: 1
2 17.4376 0.000687436 0.00094356
2 2.17886 17.4374 2.17891
2 0.000541772 2.17998 2.18066
2 2.18038 2.17947 17.4378
1 1.08959 1.0903 1.09056
1 3.26923 1.08969 3.2691
1 1.08959 3.26927 3.2702
1 3.26931 3.27026 1.08957
2 6.53966 3.28597e-05 2.1792
2 4.36044 2.17947 2.1808
2 6.54032 2.18068 17.4375
1 5.45006 1.09042 1.08972
1 7.62878 1.09017 3.26983
1 5.44916 3.26928 3.27038
1 7.62905 3.26975 1.09019
2 8.71941 5.9036e-06 17.4382
2 10.8992 17.4381 2.18028
2 8.71844 2.17987 2.17892
2 10.8991 2.17915 0.000372054
1 9.80969 1.08969 1.09008
1 11.9889 1.08937 3.26924
1 9.80917 3.26917 3.26925
1 11.9888 3.26935 1.08956
2 13.079 17.4375 0.000504117
2 15.2588 17.4382 2.17939
2 13.0796 2.17915 2.17963
2 15.2589 2.18059 0.00101064
1 14.1687 1.09019 1.09017
1 16.3481 1.08965 3.26962
1 14.1691 3.26977 3.26943
1 16.3483 3.26944 1.0901
2 0.0189033 4.44495 0.10586
2 2.17888 4.35863 2.1797
2 0.000279357 6.53932 2.18017
2 2.17894 6.53981 17.4375
1 1.09028 5.44982 1.09048
1 3.26993 5.44929 3.26926
1 1.09025 7.62995 3.26949
1 3.26959 7.62877 1.08941
2 6.5393 4.36019 2.18027
2 4.35928 6.53981 2.17913
1 5.45002 5.44913 1.09042
1 7.62926 5.44925 3.26945
1 5.44993 7.62948 3.27024
1 7.62933 7.62947 1.09049
2 8.72002 4.35905 0.000572238
2 10.8994 4.35961 2.18025
2 8.71911 6.53985 2.18053
2 10.898 6.53867 17.4381
1 9.80878 5.44981 1.08934
1 11.9895 5.44965 3.26979
1 9.80855 7.62881 3.26944
1 11.9884 7.62879 1.08958
2 15.2583 4.36039 2.1795
2 13.0784 6.53862 2.18082
2 15.2595 6.53844 0.000579037
1 14.1692 5.4497 1.08981
1 16.3485 5.4496 3.26938
1 14.1688 7.6295 3.27012
1 16.3483 7.62962 1.08928
2 2.17963 8.71948 2.17913
2 6.80626e-05 10.8998 2.17976
2 2.18029 10.8986 17.4379
1 1.09047 9.80925 1.08994
1 3.26996 9.80963 3.2693
1 1.08999 11.9885 3.26942
1 3.27001 11.9883 1.09005
2 4.3604 8.71856 17.4384
2 6.5398 8.7183 2.18077
2 4.36005 10.8997 2.17921
1 5.44951 9.80957 1.08968
1 7.62901 9.8085 3.26954
1 5.44955 11.9891 3.27004
1 7.62885 11.9892 1.08988
2 8.71853 8.71903 0.000398929
2 10.8982 8.71997 2.17921
2 8.71838 10.8985 2.17957
2 10.8997 10.8987 0.000747456
1 9.80848 9.80971 1.08958
1 11.9893 9.80896 3.26977
1 9.80971 11.989 3.26989
1 11.9888 11.9885 1.08932
2 13.0791 8.71832 17.4374
2 15.2581 8.71961 2.17885
2 13.0786 10.8989 2.18031
2 15.2585 10.8997 17.4383
1 14.1686 9.80953 1.0896
1 16.3481 9.80915 3.26998
1 14.1681 11.9883 3.27018
1 16.3485 11.989 1.08936
2 0.0317759 13.1459 0.334406
2 2.17917 13.078 2.18032
2 0.000574814 15.259 2.18007
2 2.17998 15.258 17.4383
1 1.08939 14.1681 1.08956
1 3.26996 14.1691 3.27036
1 1.08978 16.3483 3.26966
1 3.27005 16.3491 1.09057
2 4.35866 13.0793 0.000504095
2 6.53921 13.0796 2.17887
2 4.35927 15.2586 2.18036
2 6.53866 15.2594 17.4376
1 5.44974 14.1693 1.08934
1 7.62908 14.169 3.27014
1 5.44939 16.3484 3.27012
1 7.62938 16.3491 1.09028
2 8.71996 13.0781 17.4384
2 10.8993 13.0781 2.1791
2 8.71929 15.259 2.18059
1 9.80931 14.1681 1.08946
1 11.9888 14.1689 3.26988
1 9.80894 16.3487 3.26954
1 11.9888 16.3484 1.08933
2 13.0797 13.0789 17.4377
2 15.2588 13.0779 2.18049
2 13.0785 15.2591 2.18067
1 14.1682 14.1689 1.08984
1 16.3482 14.1682 3.26946
1 14.1694 16.349 3.26969
1 16.348 16.3486 1.08983
2 17.4378 3.81958e-05 4.35923
2 2.17995 17.4379 6.53892
2 17.4375 2.18032 6.53977
2 2.17937 2.17919 4.35986
1 1.08958 1.09052 5.44917
1 3.26953 1.08967 7.62946
1 1.08925 3.26978 7.62969
1 3.26926 3.26995 5.44915
2 4.36046 17.4375 4.35941
2 6.53915 17.4379 6.5389
2 4.35931 2.17964 6.54041
2 6.53957 2.18055 4.3601
1 5.44975 1.0899 5.44974
1 7.62898 1.09046 7.62945
1 5.45011 3.27012 7.62952
1 7.62949 3.27034 5.44933
2 8.71927 17.4375 4.36032
2 10.8989 0.000410694 6.5392
2 8.71993 2.18032 6.54014
2 10.8989 2.17952 4.35904
1 9.80888 1.08971 5.44895
1 11.9886 1.08928 7.62916
1 9.80972 3.2699 7.62877
1 11.9889 3.26936 5.44934
2 13.0781 6.97468e-05 4.35882
2 15.2585 17.4375 6.53993
2 13.0786 2.18046 6.53841
2 15.2578 2.17959 4.3599
1 14.1681 1.08931 5.44929
1 16.3484 1.08931 7.62919
1 14.1682 3.27025 7.62938
1 16.348 3.26931 5.45014
2 17.438 4.36054 4.36033
2 2.18073 4.35951 6.53983
2 0.000217261 6.53873 6.54039
2 2.18023 6.54032 4.35964
1 1.0901 5.44906 5.44929
1 3.27031 5.44939 7.6293
1 1.08967 7.62946 7.62873
1 3.27003 7.62887 5.45008
2 4.35946 4.35936 4.36057
2 6.53881 4.35879 6.53903
2 4.35949 6.53909 6.53883
2 6.54003 6.53969 4.35967
1 5.44926 5.44952 5.44926
1 7.62978 5.45011 7.62894
1 5.4497 7.62974 7.62899
1 7.62902 7.629 5.44912
2 8.71819 4.36005 4.36051
2 10.8994 4.36013 6.54025
2 8.71837 6.53931 6.53899
2 10.8998 6.53969 4.35906
1 9.80856 5.44952 5.4492
1 11.9894 5.45008 7.62949
1 9.80941 7.62904 7.62921
1 11.989 7.62971 5.45008
2 13.0797 4.35973 4.35894
2 15.2595 4.35897 6.54017
2 13.0796 6.53887 6.53981
2 15.2584 6.53947 4.35894
1 14.1692 5.44923 5.45008
1 16.3481 5.44962 7.62955
1 14.1682 7.62899 7.62988
1 16.3491 7.62866 5.44988
2 0.000495201 8.71947 4.35988
2 2.18053 8.71868 6.53959
2 0.000985729 10.8987 6.53862
2 2.18023 10.8997 4.36047
1 1.09045 9.80856 5.44973
1 3.27008 9.80913 7.62963
1 1.0905 11.9895 7.62991
1 3.27019 11.9892 5.44901
2 4.36007 8.71887 4.35998
2 6.53923 8.71834 6.54003
2 4.3593 10.8985 6.53907
2 6.53963 10.8994 4.35914
1 5.44913 9.80932 5.44932
1 7.62987 9.80972 7.62938
1 5.44965 11.9895 7.62914
1 7.62865 11.989 5.44983
2 8.72014 8.71937 4.36049
2 10.8983 8.71939 6.53973
2 8.71819 10.8989 6.5404
2 10.8984 10.8991 4.35962
1 9.8095 9.80906 5.44987
1 11.9894 9.80892 7.62988
1 9.80895 11.9889 7.62944
1 11.9885 11.9886 5.44925
2 13.0788 8.71842 4.35934
2 15.2588 8.71833 6.54025
2 13.0782 10.8995 6.53892
2 15.2588 10.899 4.35888
1 14.1683 9.80845 5.44942
1 16.3485 9.80906 7.62871
1 14.1685 11.9893 7.62913
1 16.3479 11.9885 5.44932
2 3.12222e-05 13.0785 4.35957
2 2.17912 13.0797 6.53868
2 0.000141215 15.2587 6.5388
2 2.17947 15.2578 4.36034
1 1.0895 14.1692 5.45014
1 3.26932 14.1691 7.62894
1 1.08942 16.3488 7.62885
1 3.26967 16.3482 5.44948
2 4.36001 13.0793 4.36024
2 6.53869 13.0789 6.53847
2 4.35924 15.258 6.54008
2 6.53841 15.2592 4.35978
1 5.44975 14.1691 5.44913
1 7.6298 14.1685 7.62974
1 5.44921 16.348 7.62965
1 7.62908 16.3479 5.44907
2 8.71957 13.0792 4.36027
2 10.8981 13.0795 6.53924
2 8.71829 15.2579 6.54027
2 10.899 15.259 4.35902
1 9.80893 14.1692 5.44898
1 11.9894 14.169 7.62872
1 9.80922 16.349 7.62888
1 11.9889 16.3479 5.44943
2 13.0796 13.0792 4.36019
2 15.2588 13.0794 6.54033
2 13.0787 15.2579 6.53888
2 15.2585 15.2584 4.36015
1 14.169 14.1691 5.44937
1 16.3478 14.1687 7.62871
1 14.1686 16.349 7.62922
1 16.3489 16.3482 5.44996
2 2.1807 2.18053 8.71949
2 4.35897 17.4381 8.71942
2 6.53996 2.17979 8.7195
2 10.899 2.18024 8.71943
2 13.0893 17.3061 8.68478
2 15.2581 2.17941 8.71912
2 0.0799777 4.41424 8.40749
2 2.17987 6.53885 8.71916
2 4.3602 4.35997 8.71888
2 6.53989 6.53986 8.71821
2 10.8997 6.5392 8.71964
2 13.0785 4.35941 8.71859
2 15.2582 6.53972 8.72018
2 0.000795639 8.71831 8.7187
2 2.17994 10.8987 8.72021
2 6.5391 10.8988 8.71836
2 11.1655 10.9812 8.55642
2 15.2577 10.8989 8.71849
2 0.000763617 13.0785 8.71832
2 2.17975 15.2586 8.7189
2 4.35957 13.0783 8.71844
2 8.72019 13.0785 8.71908
2 10.899 15.2588 8.71902
264
Atoms. Timestep: 2
2 17.4368 0.00137304 0.00191288
2 2.17792 17.4364 2.17801
2 0.00108328 2.18016 2.18152
2 2.18096 2.17914 17.4373
1 1.08928 1.0907 1.0912
1 3.26877 1.08949 3.2685
1 1.08928 3.26883 3.27071
1 3.26893 3.27082 1.08923
2 6.53993 6.3488e-05 2.17861
2 4.36127 2.17915 2.1818
2 6.54123 2.18157 17.4367
1 5.45063 1.09095 1.08954
1 7.62825 1.09044 3.26996
1 5.44882 3.26886 3.27106
1 7.62879 3.2698 1.09047
2 8.71963 1.18201e-05 17.438
2 10.8994 17.4377 2.18075
2 8.71768 2.17994 2.17804
2 10.8993 2.17849 0.000769871
1 9.81028 1.08948 1.09025
1 11.9888 1.08884 3.26879
1 9.80925 3.26865 3.26881
1 11.9887 3.26899 1.08922
2 15.2589 17.438 2.17897
2 13.0804 2.1785 2.17945
2 15.2592 2.18139 0.00204884
1 14.1687 1.09048 1.09043
1 16.3477 1.0894 3.26954
1 14.1695 3.26983 3.26916
1 16.3481 3.26918 1.0903
2 0.0181551 4.44484 0.106361
2 2.17796 4.35766 2.17959
2 0.000561495 6.53924 2.18054
1 1.09066 5.45015 1.09106
1 3.27016 5.44908 3.26882
1 1.09061 7.63059 3.26929
1 3.26948 7.62824 1.08892
2 6.5392 4.36079 2.18074
2 4.35896 6.54023 2.17845
1 5.45053 5.44877 1.09095
1 7.62922 5.44899 3.26919
1 5.45035 7.62967 3.27078
1 7.62936 7.62965 1.09107
2 10.8997 4.35962 2.1807
2 8.71903 6.54031 2.18126
2 10.897 6.53794 17.4378
1 9.80847 5.45012 1.08878
1 11.9901 5.4498 3.26987
1 9.808 7.62832 3.26918
1 11.988 7.62828 1.08925
2 15.2579 4.36117 2.17919
2 13.0779 6.53783 2.18184
2 15.2603 6.53749 0.00118154
1 14.1697 5.44991 1.08972
1 16.3486 5.4497 3.26905
1 14.1689 7.62969 3.27054
1 16.348 7.62994 1.08866
2 2.17945 8.71975 2.17845
2 0.000133164 10.9006 2.17971
1 1.09103 9.80941 1.08998
1 3.27022 9.81016 3.26889
1 1.09008 11.9881 3.26915
1 3.27033 11.9877 1.09019
2 4.3612 8.71792 2.22159e-05
2 6.5402 8.7174 2.18174
2 4.3605 10.9003 2.17861
1 5.44951 9.81003 1.08945
1 7.62872 9.8079 3.26937
1 5.44961 11.9894 3.27038
1 7.6284 11.9895 1.08985
2 8.58827 8.81448 0.131362
2 10.8973 8.72075 2.17862
2 8.71755 10.898 2.17934
2 10.9004 10.8984 0.00152289
1 9.80785 9.81031 1.08924
1 11.9897 9.80883 3.26984
1 9.81032 11.9892 3.27007
1 11.9886 11.9881 1.08872
2 15.2575 8.72001 2.1779
2 13.0784 10.8988 2.18082
2 15.2584 10.9003 17.4381
1 14.1685 9.80996 1.0893
1 16.3477 9.80919 3.27027
1 14.1675 11.9877 3.27067
1 16.3486 11.989 1.08882
2 0.0316941 13.1461 0.333459
2 2.17855 13.0771 2.18084
2 0.00114887 15.2595 2.18034
2 2.18016 15.2574 17.4382
1 1.08889 14.1675 1.08922
1 3.27021 14.1694 3.27103
1 1.08966 16.348 3.26962
1 3.27039 16.3497 1.09123
2 4.35771 13.0797 0.00103624
2 6.53901 13.0804 2.17794
2 4.35895 15.2586 2.18092
1 5.44997 14.1699 1.08878
1 7.62885 14.1694 3.27058
1 5.44927 16.3484 3.27054
1 7.62946 16.3497 1.09065
2 8.72072 13.0774 17.4383
2 10.8997 13.0775 2.17839
2 8.71939 15.2593 2.18138
1 9.80952 14.1675 1.08902
1 11.9887 14.1691 3.27006
1 9.80877 16.3488 3.26938
1 11.9887 16.3483 1.08876
2 13.0806 13.0791 17.4369
2 15.2589 13.077 2.18118
2 13.0782 15.2595 2.18155
1 14.1677 14.169 1.08978
1 16.348 14.1677 3.26921
1 14.17 16.3495 3.26967
1 16.3476 16.3487 1.08975
2 17.4372 7.637e-05 4.35885
2 2.1801 17.4373 6.53844
2 17.4365 2.18085 6.54015
2 2.17894 2.17859 4.36011
1 1.08927 1.09114 5.44883
1 3.26936 1.08945 7.62964
1 1.08861 3.26985 7.63007
1 3.26882 3.2702 5.44881
2 4.36133 17.4365 4.35921
2 6.53891 17.4374 6.5384
2 4.35903 2.17948 6.54142
2 6.53973 2.18129 4.36061
1 5.45001 1.0899 5.44997
1 7.62866 1.09102 7.62961
1 5.45072 3.27053 7.62974
1 7.62969 3.27098 5.44915
2 8.71933 17.4367 4.36103
2 10.8988 0.000823653 6.53901
2 8.72067 2.18083 6.54089
2 10.8988 2.17923 4.35847
1 9.80865 1.08951 5.44841
1 11.9883 1.08866 7.62904
1 9.81034 3.27009 7.62824
1 11.9889 3.26902 5.44918
2 13.0774 0.000139389 4.35805
2 15.2583 17.4367 6.54046
2 13.0785 2.18112 6.53742
2 15.257 2.17938 4.36021
1 14.1676 1.08871 5.44908
1 16.3482 1.08872 7.62909
1 14.1676 3.2708 7.62948
1 16.3475 3.26893 5.45079
2 17.4376 4.36148 4.36105
2 2.18167 4.35941 6.54027
2 0.000433406 6.53806 6.54137
2 2.18067 6.54124 4.35968
1 1.0903 5.44862 5.44908
1 3.27092 5.44928 7.62932
1 1.08943 7.62963 7.62818
1 3.27035 7.62844 5.45066
2 4.35931 4.35911 4.36154
2 6.53822 4.35798 6.53867
2 4.35938 6.53879 6.53825
2 6.54066 6.53998 4.35974
1 5.44903 5.44953 5.44902
1 7.63025 5.45073 7.62859
1 5.44991 7.63017 7.62868
1 7.62874 7.6287 5.44873
2 8.71719 4.3605 4.36142
2 10.8997 4.36066 6.54111
2 8.71753 6.53921 6.53858
2 10.9007 6.53999 4.35853
1 9.80803 5.44953 5.44889
1 11.99 5.45065 7.62969
1 9.80972 7.62878 7.62911
1 11.989 7.63012 5.45066
2 13.0806 4.35985 4.35827
2 15.2603 4.35834 6.54094
2 13.0804 6.53835 6.54023
2 15.2581 6.53954 4.35828
1 14.1696 5.44895 5.45066
1 16.3478 5.44975 7.6298
1 14.1676 7.62868 7.63047
1 16.3497 7.62802 5.45026
2 0.000990315 8.71974 4.36017
2 2.18127 8.71816 6.53978
2 0.00197131 10.8984 6.53784
2 2.18067 10.9004 4.36135
1 1.091 9.80802 5.44995
1 3.27046 9.80917 7.62997
1 1.0911 11.99 7.63053
1 3.27068 11.9895 5.44852
2 4.36054 8.71855 4.36035
2 6.53907 8.71748 6.54065
2 4.35901 10.8981 6.53875
2 6.53987 10.8998 4.35868
1 5.44875 9.80953 5.44913
1 7.63045 9.81033 7.62946
1 5.44979 11.9901 7.62898
1 7.62799 11.9892 5.45015
2 8.72108 8.71955 4.36139
2 10.8976 8.71958 6.54006
2 8.71719 10.8988 6.54141
2 10.8978 10.8991 4.35964
1 9.8099 9.80902 5.45025
1 11.9899 9.80872 7.63045
1 9.80879 11.9889 7.62959
1 11.9881 11.9882 5.449
2 13.0789 8.71765 4.35909
2 15.2589 8.71746 6.5411
2 13.0775 10.9001 6.53845
2 15.259 10.8991 4.35816
1 14.168 9.80781 5.44934
1 16.3485 9.80901 7.62814
1 14.1684 11.9897 7.62896
1 16.3474 11.9881 5.44914
2 6.24176e-05 13.0783 4.35954
2 2.17843 13.0807 6.53796
2 0.000278218 15.2589 6.53821
2 2.17913 15.2571 4.36109
1 1.08909 14.1697 5.45079
1 3.26895 14.1694 7.62859
1 1.08894 16.3491 7.62841
1 3.26964 16.3479 5.44946
2 4.36042 13.0797 4.36088
2 6.53798 13.079 6.53754
2 4.35888 15.2573 6.54075
2 6.53742 15.2597 4.35997
1 5.45 14.1695 5.44876
1 7.6303 14.1683 7.63017
1 5.44892 16.3476 7.63001
1 7.62886 16.3473 5.44863
2 8.71993 13.0797 4.36093
2 10.8973 13.0801 6.53908
2 8.71738 15.2572 6.54115
2 10.899 15.2594 4.35845
1 9.80875 14.1697 5.44846
1 11.9899 14.1694 7.62815
1 9.80933 16.3494 7.62846
1 11.9889 16.3472 5.44936
2 13.0805 13.0795 4.36078
2 15.259 13.0801 6.54126
2 13.0786 15.2571 6.53836
2 15.2585 15.2581 4.3607
1 14.1692 14.1696 5.44924
1 16.3472 14.1687 7.62812
1 14.1685 16.3494 7.62913
1 16.3493 16.3479 5.45042
2 4.35834 17.4377 8.71961
2 6.54052 2.17977 8.71977
2 10.899 2.18068 8.71963
2 13.089 17.307 8.68416
2 15.2575 2.17901 8.71902
2 0.080933 4.41441 8.40677
2 2.17995 6.53829 8.7191
2 4.3608 4.36035 8.71854
2 6.54038 6.54031 8.7172
2 10.9004 6.53901 8.72005
2 12.775 4.18279 8.40421
2 15.2577 6.54005 8.72113
2 0.00159111 8.71743 8.71818
2 2.43094 11.0197 8.38563
2 6.5388 10.8987 8.71749
2 11.166 10.9814 8.5566
2 15.2568 10.8988 8.71776
2 0.00152522 13.0783 8.71741
2 2.1797 15.2587 8.71857
2 4.35953 13.0778 8.71765
2 8.72118 13.0783 8.71894
2 10.899 15.259 8.71882
261
Atoms. Timestep: 3
2 17.4359 0.00205684 0.00290793
2 2.17698 17.4355 2.17712
2 0.00162431 2.18034 2.18238
1 1.08898 1.09109 1.09184
1 3.2683 1.08928 3.2679
1 1.08897 3.2684 3.27121
1 3.26854 3.27138 1.08889
2 6.54019 9.00602e-05 2.17801
2 4.36211 2.17882 2.18279
2 6.54214 2.18245 17.4358
1 5.4512 1.09148 1.08936
1 7.62773 1.0907 3.27009
1 5.44848 3.26844 3.27174
1 7.62853 3.26985 1.09075
2 8.71984 1.59018e-05 17.4378
2 10.8996 17.4374 2.18122
2 8.71693 2.18002 2.17715
2 10.8994 2.17784 0.00119341
1 9.81087 1.08927 1.0904
1 11.9888 1.08832 3.26833
1 9.80932 3.26812 3.26836
1 11.9886 3.26864 1.08888
2 15.2591 17.4378 2.17855
2 13.0812 2.17785 2.17927
2 15.2594 2.18218 0.00311228
1 14.1687 1.09078 1.09068
1 16.3474 1.08916 3.26945
1 14.1699 3.2699 3.26889
1 16.348 3.26892 1.09048
2 0.0173975 4.44472 0.106878
2 2.17705 4.35669 2.17948
2 0.000848219 6.53916 2.18091
1 1.09104 5.45048 1.09164
1 3.27039 5.44888 3.26838
1 1.09096 7.63124 3.26908
1 3.26938 7.62771 1.08842
2 6.5391 4.36138 2.1812
2 4.35864 6.54064 2.17777
1 5.45104 5.4484 1.09148
1 7.62918 5.44874 3.26894
1 5.45078 7.62985 3.27132
1 7.62939 7.62982 1.09166
2 10.9001 4.35963 2.18114
2 8.71893 6.54075 2.18199
2 10.896 6.53721 17.4375
1 9.80816 5.45043 1.08821
1 11.9906 5.44995 3.26996
1 9.80744 7.62783 3.26893
1 11.9875 7.62777 1.08892
2 15.2576 4.36196 2.17888
2 13.0775 6.53705 2.18286
2 15.2612 6.53653 0.00180745
1 14.1702 5.45011 1.08962
1 16.3486 5.44981 3.26873
1 14.169 7.62989 3.27096
1 16.3478 7.63025 1.08804
2 2.17928 8.72002 2.17777
2 0.000196934 10.9014 2.17966
1 1.0916 9.80956 1.09002
1 3.27049 9.81069 3.26849
1 1.09017 11.9877 3.26887
1 3.27064 11.9872 1.09033
2 4.362 8.71728 6.97665e-05
2 6.5406 8.71651 2.18271
2 4.36094 10.901 2.17801
1 5.44951 9.8105 1.08922
1 7.62843 9.8073 3.26921
1 5.44966 11.9896 3.27072
1 7.62795 11.9898 1.08982
2 8.5876 8.81431 0.131802
2 10.8965 8.72152 2.17804
2 8.71673 10.8975 2.17911
2 10.9011 10.8981 0.00232587
1 9.80723 9.81092 1.0889
1 11.9901 9.80869 3.26991
1 9.81093 11.9893 3.27026
1 11.9885 11.9877 1.08812
2 15.257 8.72042 2.17694
2 13.0783 10.8987 2.18133
2 15.4617 10.848 0.27201
1 14.1683 9.81039 1.08899
1 16.3474 9.80924 3.27055
1 14.167 11.9871 3.27115
1 16.3486 11.9891 1.08828
2 0.0315904 13.1463 0.332468
2 2.17792 13.0763 2.18136
2 0.00172196 15.2599 2.18061
2 2.18034 15.2569 17.4382
1 1.0884 14.167 1.0889
1 3.27047 14.1698 3.27169
1 1.08955 16.3478 3.26958
1 3.27073 16.3503 1.0919
2 4.35677 13.0802 0.00159189
2 6.53882 13.0812 2.17701
2 4.35863 15.2585 2.18147
1 5.4502 14.1704 1.08821
1 7.62863 14.1697 3.27102
1 5.44916 16.3483 3.27096
1 7.62955 16.3503 1.09102
2 8.72148 13.0767 17.4384
2 10.9001 13.0769 2.17769
2 8.71948 15.2597 2.18216
1 9.80973 14.167 1.08857
1 11.9886 14.1692 3.27024
1 9.80861 16.349 3.26922
1 11.9886 16.3482 1.08819
2 13.0816 13.0792 17.4363
2 15.2591 13.0761 2.18187
2 13.0778 15.26 2.18241
1 14.1776 14.1839 0.982283
1 16.3477 14.1672 3.26897
1 14.1707 16.35 3.26966
1 16.3472 16.3488 1.08968
2 17.4366 0.000114501 4.35848
2 2.18025 17.4368 6.53796
2 17.4356 2.18136 6.54053
2 2.17851 2.17798 4.36037
1 1.08895 1.09176 5.4485
1 3.26919 1.08922 7.62981
1 1.08797 3.26993 7.63045
1 3.26837 3.27045 5.44846
2 4.36219 17.4356 4.35902
2 6.53867 17.4369 6.5379
2 4.35874 2.17932 6.54243
2 6.5399 2.18204 4.36111
1 5.45026 1.0899 5.45021
1 7.62833 1.09158 7.62976
1 5.45133 3.27095 7.62998
1 7.62988 3.27162 5.44898
2 8.7194 17.4358 4.36175
2 10.8988 0.00123874 6.53881
2 8.7214 2.18135 6.54163
2 10.8987 2.17895 4.35791
1 9.80843 1.08932 5.44786
1 11.988 1.08804 7.62893
1 9.81096 3.27028 7.62772
1 11.9888 3.26868 5.44902
2 13.0766 0.000208823 4.35727
2 15.2582 17.4358 6.541
2 13.0783 2.18178 6.53642
2 15.2562 2.17917 4.36051
1 14.167 1.08812 5.44886
1 16.3481 1.08814 7.62899
1 14.1671 3.27135 7.62957
1 16.347 3.26854 5.45143
2 17.4372 4.36242 4.36178
2 2.18261 4.35931 6.5407
2 0.000648428 6.5374 6.54236
2 2.1811 6.54216 4.35973
1 1.0905 5.44819 5.44887
1 3.27153 5.44917 7.62934
1 1.0892 7.62979 7.62763
1 3.27068 7.62801 5.45124
2 4.35917 4.35887 4.3625
2 6.53763 4.35717 6.5383
2 4.35926 6.53849 6.53768
2 6.54128 6.54027 4.35981
1 5.44879 5.44955 5.44878
1 7.63072 5.45134 7.62824
1 5.45011 7.63061 7.62837
1 7.62847 7.6284 5.44835
2 8.71618 4.36095 4.36233
2 10.9001 4.3612 6.54196
2 8.7167 6.53912 6.53818
2 10.9015 6.54028 4.35799
1 9.80749 5.44955 5.44859
1 11.9905 5.45124 7.62989
1 9.81004 7.62851 7.62903
1 11.9891 7.63052 5.45124
2 13.0815 4.35998 4.35761
2 15.2612 4.35771 6.54171
2 13.0812 6.53783 6.54064
2 15.2579 6.53961 4.35763
1 14.1701 5.44868 5.45123
1 16.3474 5.44988 7.63005
1 14.1671 7.62837 7.63105
1 16.3502 7.62738 5.45064
2 0.00148526 8.72001 4.36045
2 2.182 8.71764 6.53997
2 0.00295655 10.8981 6.53706
2 2.1811 10.9011 4.36222
1 1.09155 9.80747 5.45018
1 3.27084 9.80919 7.63029
1 1.09171 11.9906 7.63115
1 3.27116 11.9898 5.44803
2 4.36101 8.71822 4.36073
2 6.5389 8.71663 6.54129
2 4.35872 10.8976 6.53842
2 6.5401 10.9002 4.35822
1 5.44838 9.80975 5.44895
1 7.63102 9.81095 7.62954
1 5.44994 11.9908 7.62884
1 7.62734 11.9893 5.45048
2 8.72202 8.71972 4.36228
2 10.8969 8.71977 6.54039
2 8.71619 10.8987 6.54242
2 10.8972 10.8992 4.35966
1 9.8103 9.80898 5.45062
1 11.9904 9.80853 7.63101
1 9.80865 11.9889 7.62976
1 11.9877 11.9879 5.44875
2 13.0789 8.71687 4.35883
2 15.2591 8.7166 6.54195
2 13.0769 10.9006 6.53798
2 15.2592 10.8991 4.35744
1 14.1676 9.80716 5.44925
1 16.3485 9.80897 7.62757
1 14.1682 11.9901 7.6288
1 16.3468 11.9877 5.44896
2 9.35593e-05 13.078 4.35952
2 2.17775 13.0816 6.53723
2 0.000410917 15.2591 6.53762
2 2.1788 15.2563 4.36183
1 1.08869 14.1701 5.45143
1 3.26857 14.1698 7.62825
1 1.08846 16.3494 7.62797
1 3.26962 16.3477 5.44944
2 4.36083 13.0802 4.36152
2 6.53726 13.0792 6.53662
2 4.35853 15.2567 6.54143
2 6.53643 15.2603 4.36015
1 5.45025 14.1699 5.44839
1 7.6308 14.168 7.63062
1 5.44863 16.3471 7.63036
1 7.62864 16.3467 5.4482
2 8.7203 13.0801 4.3616
2 10.8964 13.0808 6.53893
2 8.71647 15.2565 6.54203
2 10.899 15.2597 4.35787
1 9.80858 14.1702 5.44795
1 11.9905 14.1697 7.62757
1 9.80945 16.3499 7.62804
1 11.989 16.3466 5.44929
2 13.0813 13.0799 4.36137
2 15.2591 13.0807 6.54219
2 13.0785 15.2564 6.53784
2 15.2584 15.2579 4.36124
1 14.1695 14.17 5.44912
1 16.3466 14.1687 7.62753
1 14.1684 16.3499 7.62905
1 16.3497 16.3476 5.45089
2 4.35771 17.4374 8.71978
2 6.54108 2.17975 8.72001
2 10.8991 2.18112 8.71981
2 13.0886 17.3079 8.68351
2 15.257 2.17862 8.71889
2 0.0818845 4.41458 8.40609
2 2.18002 6.53774 8.71901
2 6.54087 6.54077 8.71616
2 10.9011 6.53882 8.72044
2 12.7748 4.18258 8.40357
2 15.2573 6.54038 8.72205
2 2.43106 11.0194 8.38664
2 6.5385 10.8985 8.7166
2 11.1664 10.9817 8.55677
2 15.2558 10.8987 8.717
2 0.00228584 13.078 8.71648
2 2.17965 15.2587 8.71822
2 4.3595 13.0773 8.71684
2 8.62006 13.0501 8.53092
2 10.899 15.2592 8.7186
258
Atoms. Timestep: 4
2 17.4351 0.00274069 0.00392639
2 2.17605 17.4345 2.17622
2 0.00216648 2.18052 2.18324
1 1.08867 1.09149 1.09247
1 3.26784 1.08908 3.2673
1 1.08866 3.26797 3.27172
1 3.26815 3.27194 1.08856
2 6.54044 0.000112609 2.17741
2 4.36294 2.17849 2.18377
2 6.54305 2.18333 17.435
1 5.45177 1.09201 1.08918
1 7.62721 1.09097 3.27022
1 5.44814 3.26802 3.27242
1 7.62827 3.26989 1.09103
2 10.8998 17.437 2.18169
2 8.71617 2.18009 2.17627
2 10.8996 2.17719 0.00164263
1 9.81146 1.08906 1.09055
1 11.9887 1.08779 3.26787
1 9.80939 3.26759 3.26791
1 11.9885 3.26828 1.08853
2 15.2593 17.4376 2.17813
2 13.082 2.1772 2.17908
2 15.2597 2.18298 0.0042009
1 14.1688 1.09107 1.09093
1 16.347 1.08891 3.26937
1 14.1703 3.26996 3.26862
1 16.3478 3.26866 1.09065
2 0.0166305 4.44458 0.10741
2 2.17614 4.35573 2.17937
2 0.00113947 6.53909 2.18127
1 1.09143 5.45081 1.09222
1 3.27062 5.44867 3.26794
1 1.09131 7.63188 3.26887
1 3.26927 7.62718 1.08792
2 6.53901 4.36197 2.18166
2 4.35831 6.54105 2.17708
1 5.45156 5.44804 1.09202
1 7.62914 5.44849 3.26869
1 5.4512 7.63003 3.27185
1 7.62943 7.63 1.09224
2 10.9004 4.35964 2.18158
2 8.71884 6.5412 2.18271
2 10.895 6.53648 17.4373
1 9.80784 5.45075 1.08764
1 11.9912 5.4501 3.27005
1 9.80689 7.62734 3.26867
1 11.9871 7.62726 1.08858
2 15.2855 4.34125 2.13104
2 13.077 6.53626 2.18387
2 15.2621 6.53558 0.00245667
1 14.1707 5.45032 1.08952
1 16.3486 5.44991 3.2684
1 14.1691 7.63008 3.27137
1 16.3475 7.63056 1.08742
2 2.1791 8.72029 2.17708
2 0.00026116 10.9022 2.17961
1 1.09217 9.80972 1.09007
1 3.27075 9.81122 3.26808
1 1.09026 11.9874 3.26859
1 3.27096 11.9866 1.09047
2 4.56985 8.61104 0.198586
2 6.54099 8.71561 2.18367
2 4.36139 10.9016 2.17741
1 5.44951 9.81096 1.08899
1 7.62814 9.8067 3.26905
1 5.44971 11.9899 3.27106
1 7.62751 11.9901 1.08979
2 8.58694 8.81413 0.132255
2 10.8957 8.7223 2.17744
2 8.7159 10.897 2.17887
1 9.80661 9.81153 1.08855
1 11.9905 9.80856 3.26998
1 9.81154 11.9895 3.27044
1 11.9884 11.9874 1.0875
2 15.2565 8.72083 2.17598
2 13.0781 10.8986 2.18184
2 15.4616 10.8486 0.271904
1 14.2012 9.80487 1.10019
1 16.347 9.80928 3.27083
1 14.1664 11.9865 3.27164
1 16.3486 11.9891 1.08776
2 0.0314646 13.1464 0.331433
2 2.1773 13.0754 2.18188
2 0.00229386 15.2604 2.18088
2 2.04249 15.4364 0.207108
1 1.08792 14.1664 1.08858
1 3.27073 14.1701 3.27235
1 1.08943 16.3475 3.26954
1 3.27107 16.3508 1.09256
2 4.14843 13.2638 0.0817661
2 6.53862 13.082 2.17608
2 4.35832 15.2585 2.18202
1 5.45044 14.171 1.08764
1 7.6284 14.17 3.27146
1 5.44905 16.3482 3.27138
1 7.62963 16.3509 1.09139
2 8.72224 13.0761 17.4384
2 10.9004 13.0762 2.17698
2 8.71957 15.26 2.18294
1 9.80994 14.1664 1.08813
1 11.9886 14.1694 3.27043
1 9.80844 16.3491 3.26906