288
Atoms. Timestep: 0
2 0 0 0
2 2.1798 0 2.1798
2 0 2.1798 2.1798
2 2.1798 2.1798 0
1 1.0899 1.0899 1.0899
1 3.2697 1.0899 3.2697
1 1.0899 3.2697 3.2697
1 3.2697 3.2697 1.0899
2 4.3596 0 0
2 6.5394 0 2.1798
2 4.3596 2.1798 2.1798
2 6.5394 2.1798 0
1 5.4495 1.0899 1.0899
1 7.6293 1.0899 3.2697
1 5.4495 3.2697 3.2697
1 7.6293 3.2697 1.0899
2 8.7192 0 0
2 10.899 0 2.1798
2 8.7192 2.1798 2.1798
2 10.899 2.1798 0
1 9.8091 1.0899 1.0899
1 11.9889 1.0899 3.2697
1 9.8091 3.2697 3.2697
1 11.9889 3.2697 1.0899
2 13.0788 0 0
2 15.2586 0 2.1798
2 13.0788 2.1798 2.1798
2 15.2586 2.1798 0
1 14.1687 1.0899 1.0899
1 16.3485 1.0899 3.2697
1 14.1687 3.2697 3.2697
1 16.3485 3.2697 1.0899
2 0 4.3596 0
2 2.1798 4.3596 2.1798
2 0 6.5394 2.1798
2 2.1798 6.5394 0
1 1.0899 5.4495 1.0899
1 3.2697 5.4495 3.2697
1 1.0899 7.6293 3.2697
1 3.2697 7.6293 1.0899
2 4.3596 4.3596 0
2 6.5394 4.3596 2.1798
2 4.3596 6.5394 2.1798
2 6.5394 6.5394 0
1 5.4495 5.4495 1.0899
1 7.6293 5.4495 3.2697
1 5.4495 7.6293 3.2697
1 7.6293 7.6293 1.0899
2 8.7192 4.3596 0
2 10.899 4.3596 2.1798
2 8.7192 6.5394 2.1798
2 10.899 6.5394 0
1 9.8091 5.4495 1.0899
1 11.9889 5.4495 3.2697
1 9.8091 7.6293 3.2697
1 11.9889 7.6293 1.0899
2 13.0788 4.3596 0
2 15.2586 4.3596 2.1798
2 13.0788 6.5394 2.1798
2 15.2586 6.5394 0
1 14.1687 5.4495 1.0899
1 16.3485 5.4495 3.2697
1 14.1687 7.6293 3.2697
1 16.3485 7.6293 1.0899
2 0 8.7192 0
2 2.1798 8.7192 2.1798
2 0 10.899 2.1798
2 2.1798 10.899 0
1 1.0899 9.8091 1.0899
1 3.2697 9.8091 3.2697
1 1.0899 11.9889 3.2697
1 3.2697 11.9889 1.0899
2 4.3596 8.7192 0
2 6.5394 8.7192 2.1798
2 4.3596 10.899 2.1798
2 6.5394 10.899 0
1 5.4495 9.8091 1.0899
1 7.6293 9.8091 3.2697
1 5.4495 11.9889 3.2697
1 7.6293 11.9889 1.0899
2 8.7192 8.7192 0
2 10.899 8.7192 2.1798
2 8.7192 10.899 2.1798
2 10.899 10.899 0
1 9.8091 9.8091 1.0899
1 11.9889 9.8091 3.2697
1 9.8091 11.9889 3.2697
1 11.9889 11.9889 1.0899
2 13.0788 8.7192 0
2 15.2586 8.7192 2.1798
2 13.0788 10.899 2.1798
2 15.2586 10.899 0
1 14.1687 9.8091 1.0899
1 16.3485 9.8091 3.2697
1 14.1687 11.9889 3.2697
1 16.3485 11.9889 1.0899
2 0 13.0788 0
2 2.1798 13.0788 2.1798
2 0 15.2586 2.1798
2 2.1798 15.2586 0
1 1.0899 14.1687 1.0899
1 3.2697 14.1687 3.2697
1 1.0899 16.3485 3.2697
1 3.2697 16.3485 1.0899
2 4.3596 13.0788 0
2 6.5394 13.0788 2.1798
2 4.3596 15.2586 2.1798
2 6.5394 15.2586 0
1 5.4495 14.1687 1.0899
1 7.6293 14.1687 3.2697
1 5.4495 16.3485 3.2697
1 7.6293 16.3485 1.0899
2 8.7192 13.0788 0
2 10.899 13.0788 2.1798
2 8.7192 15.2586 2.1798
2 10.899 15.2586 0
1 9.8091 14.1687 1.0899
1 11.9889 14.1687 3.2697
1 9.8091 16.3485 3.2697
1 11.9889 16.3485 1.0899
2 13.0788 13.0788 0
2 15.2586 13.0788 2.1798
2 13.0788 15.2586 2.1798
2 15.2586 15.2586 0
1 14.1687 14.1687 1.0899
1 16.3485 14.1687 3.2697
1 14.1687 16.3485 3.2697
1 16.3485 16.3485 1.0899
2 0 0 4.3596
2 2.1798 0 6.5394
2 0 2.1798 6.5394
2 2.1798 2.1798 4.3596
1 1.0899 1.0899 5.4495
1 3.2697 1.0899 7.6293
1 1.0899 3.2697 7.6293
1 3.2697 3.2697 5.4495
2 4.3596 0 4.3596
2 6.5394 0 6.5394
2 4.3596 2.1798 6.5394
2 6.5394 2.1798 4.3596
1 5.4495 1.0899 5.4495
1 7.6293 1.0899 7.6293
1 5.4495 3.2697 7.6293
1 7.6293 3.2697 5.4495
2 8.7192 0 4.3596
2 10.899 0 6.5394
2 8.7192 2.1798 6.5394
2 10.899 2.1798 4.3596
1 9.8091 1.0899 5.4495
1 11.9889 1.0899 7.6293
1 9.8091 3.2697 7.6293
1 11.9889 3.2697 5.4495
2 13.0788 0 4.3596
2 15.2586 0 6.5394
2 13.0788 2.1798 6.5394
2 15.2586 2.1798 4.3596
1 14.1687 1.0899 5.4495
1 16.3485 1.0899 7.6293
1 14.1687 3.2697 7.6293
1 16.3485 3.2697 5.4495
2 0 4.3596 4.3596
2 2.1798 4.3596 6.5394
2 0 6.5394 6.5394
2 2.1798 6.5394 4.3596
1 1.0899 5.4495 5.4495
1 3.2697 5.4495 7.6293
1 1.0899 7.6293 7.6293
1 3.2697 7.6293 5.4495
2 4.3596 4.3596 4.3596
2 6.5394 4.3596 6.5394
2 4.3596 6.5394 6.5394
2 6.5394 6.5394 4.3596
1 5.4495 5.4495 5.4495
1 7.6293 5.4495 7.6293
1 5.4495 7.6293 7.6293
1 7.6293 7.6293 5.4495
2 8.7192 4.3596 4.3596
2 10.899 4.3596 6.5394
2 8.7192 6.5394 6.5394
2 10.899 6.5394 4.3596
1 9.8091 5.4495 5.4495
1 11.9889 5.4495 7.6293
1 9.8091 7.6293 7.6293
1 11.9889 7.6293 5.4495
2 13.0788 4.3596 4.3596
2 15.2586 4.3596 6.5394
2 13.0788 6.5394 6.5394
2 15.2586 6.5394 4.3596
1 14.1687 5.4495 5.4495
1 16.3485 5.4495 7.6293
1 14.1687 7.6293 7.6293
1 16.3485 7.6293 5.4495
2 0 8.7192 4.3596
2 2.1798 8.7192 6.5394
2 0 10.899 6.5394
2 2.1798 10.899 4.3596
1 1.0899 9.8091 5.4495
1 3.2697 9.8091 7.6293
1 1.0899 11.9889 7.6293
1 3.2697 11.9889 5.4495
2 4.3596 8.7192 4.3596
2 6.5394 8.7192 6.5394
2 4.3596 10.899 6.5394
2 6.5394 10.899 4.3596
1 5.4495 9.8091 5.4495
1 7.6293 9.8091 7.6293
1 5.4495 11.9889 7.6293
1 7.6293 11.9889 5.4495
2 8.7192 8.7192 4.3596
2 10.899 8.7192 6.5394
2 8.7192 10.899 6.5394
2 10.899 10.899 4.3596
1 9.8091 9.8091 5.4495
1 11.9889 9.8091 7.6293
1 9.8091 11.9889 7.6293
1 11.9889 11.9889 5.4495
2 13.0788 8.7192 4.3596
2 15.2586 8.7192 6.5394
2 13.0788 10.899 6.5394
2 15.2586 10.899 4.3596
1 14.1687 9.8091 5.4495
1 16.3485 9.8091 7.6293
1 14.1687 11.9889 7.6293
1 16.3485 11.9889 5.4495
2 0 13.0788 4.3596
2 2.1798 13.0788 6.5394
2 0 15.2586 6.5394
2 2.1798 15.2586 4.3596
1 1.0899 14.1687 5.4495
1 3.2697 14.1687 7.6293
1 1.0899 16.3485 7.6293
1 3.2697 16.3485 5.4495
2 4.3596 13.0788 4.3596
2 6.5394 13.0788 6.5394
2 4.3596 15.2586 6.5394
2 6.5394 15.2586 4.3596
1 5.4495 14.1687 5.4495
1 7.6293 14.1687 7.6293
1 5.4495 16.3485 7.6293
1 7.6293 16.3485 5.4495
2 8.7192 13.0788 4.3596
2 10.899 13.0788 6.5394
2 8.7192 15.2586 6.5394
2 10.899 15.2586 4.3596
1 9.8091 14.1687 5.4495
1 11.9889 14.1687 7.6293
1 9.8091 16.3485 7.6293
1 11.9889 16.3485 5.4495
2 13.0788 13.0788 4.3596
2 15.2586 13.0788 6.5394
2 13.0788 15.2586 6.5394
2 15.2586 15.2586 4.3596
1 14.1687 14.1687 5.4495
1 16.3485 14.1687 7.6293
1 14.1687 16.3485 7.6293
1 16.3485 16.3485 5.4495
2 0 0 8.7192
2 2.1798 2.1798 8.7192
2 4.3596 0 8.7192
2 6.5394 2.1798 8.7192
2 8.7192 0 8.7192
2 10.899 2.1798 8.7192
2 13.0788 0 8.7192
2 15.2586 2.1798 8.7192
2 0 4.3596 8.7192
2 2.1798 6.5394 8.7192
2 4.3596 4.3596 8.7192
2 6.5394 6.5394 8.7192
2 8.7192 4.3596 8.7192
2 10.899 6.5394 8.7192
2 13.0788 4.3596 8.7192
2 15.2586 6.5394 8.7192
2 0 8.7192 8.7192
2 2.1798 10.899 8.7192
2 4.3596 8.7192 8.7192
2 6.5394 10.899 8.7192
2 8.7192 8.7192 8.7192
2 10.899 10.899 8.7192
2 13.0788 8.7192 8.7192
2 15.2586 10.899 8.7192
2 0 13.0788 8.7192
2 2.1798 15.2586 8.7192
2 4.3596 13.0788 8.7192
2 6.5394 15.2586 8.7192
2 8.7192 13.0788 8.7192
2 10.899 15.2586 8.7192
2 13.0788 13.0788 8.7192
2 15.2586 15.2586 8.7192
271
Atoms. Timestep: 1
2 17.4376 0.000687436 0.00094356
2 2.17886 17.4374 2.17891
2 0.000541772 2.17998 2.18066
2 2.18038 2.17947 17.4378
1 1.08959 1.0903 1.09056
1 3.26923 1.08969 3.2691
1 1.08959 3.26927 3.2702
1 3.26931 3.27026 1.08957
2 4.36048 0.00089435 17.438
2 6.53966 3.28597e-05 2.1792
2 4.36044 2.17947 2.1808
2 6.54032 2.18068 17.4375
1 5.45006 1.09042 1.08972
1 7.62878 1.09017 3.26983
1 5.44916 3.26928 3.27038
1 7.62905 3.26975 1.09019
2 8.71941 5.9036e-06 17.4382
2 10.8992 17.4381 2.18028
2 8.71844 2.17987 2.17892
2 10.8991 2.17915 0.000372054
1 9.80969 1.08969 1.09008
1 11.9889 1.08937 3.26924
1 9.80917 3.26917 3.26925
1 11.9888 3.26935 1.08956
2 13.079 17.4375 0.000504117
2 15.2588 17.4382 2.17939
2 13.0796 2.17915 2.17963
2 15.2589 2.18059 0.00101064
1 14.1687 1.09019 1.09017
1 16.3481 1.08965 3.26962
1 14.1691 3.26977 3.26943
1 16.3483 3.26944 1.0901
2 17.4377 4.3595 0.000484091
2 2.17888 4.35863 2.1797
2 0.000279357 6.53932 2.18017
2 2.17894 6.53981 17.4375
1 1.09028 5.44982 1.09048
1 3.26993 5.44929 3.26926
1 1.09025 7.62995 3.26949
1 3.26959 7.62877 1.08941
2 4.35915 4.3602 17.4375
2 6.5393 4.36019 2.18027
2 4.35928 6.53981 2.17913
2 6.53844 6.54022 0.000367692
1 5.45002 5.44913 1.09042
1 7.62926 5.44925 3.26945
1 5.44993 7.62948 3.27024
1 7.62933 7.62947 1.09049
2 8.72002 4.35905 0.000572238
2 10.8994 4.35961 2.18025
2 8.71911 6.53985 2.18053
1 9.80878 5.44981 1.08934
1 11.9895 5.44965 3.26979
1 9.80855 7.62881 3.26944
1 11.9884 7.62879 1.08958
2 13.0793 4.35923 7.88524e-05
2 15.2583 4.36039 2.1795
2 13.0784 6.53862 2.18082
2 15.2595 6.53844 0.000579037
1 14.1692 5.4497 1.08981
1 16.3485 5.4496 3.26938
1 14.1688 7.6295 3.27012
1 16.3483 7.62962 1.08928
2 0.000734755 8.71981 0.000822992
2 2.17963 8.71948 2.17913
2 6.80626e-05 10.8998 2.17976
2 2.18029 10.8986 17.4379
1 1.09047 9.80925 1.08994
1 3.26996 9.80963 3.2693
1 1.08999 11.9885 3.26942
1 3.27001 11.9883 1.09005
2 4.3604 8.71856 17.4384
2 6.5398 8.7183 2.18077
2 4.36005 10.8997 2.17921
2 6.53839 10.899 0.000839214
1 7.62901 9.8085 3.26954
1 5.44955 11.9891 3.27004
1 7.62885 11.9892 1.08988
2 8.71853 8.71903 0.000398929
2 10.8982 8.71997 2.17921
2 8.71838 10.8985 2.17957
2 10.8997 10.8987 0.000747456
1 9.80848 9.80971 1.08958
2 11.9893 9.80896 3.26977
1 9.80971 11.989 3.26989
2 15.2581 8.71961 2.17885
2 13.0786 10.8989 2.18031
2 15.2585 10.8997 17.4383
1 14.1686 9.80953 1.0896
1 16.3481 9.80915 3.26998
1 14.1681 11.9883 3.27018
1 16.3485 11.989 1.08936
2 17.4383 13.079 17.4375
2 2.17917 13.078 2.18032
2 0.000574814 15.259 2.18007
2 2.17998 15.258 17.4383
1 1.08939 14.1681 1.08956
1 3.26996 14.1691 3.27036
1 1.08978 16.3483 3.26966
1 3.27005 16.3491 1.09057
2 4.35866 13.0793 0.000504095
2 6.53921 13.0796 2.17887
2 4.35927 15.2586 2.18036
1 5.44974 14.1693 1.08934
1 7.62908 14.169 3.27014
1 5.44939 16.3484 3.27012
1 7.62938 16.3491 1.09028
2 8.71996 13.0781 17.4384
2 10.8993 13.0781 2.1791
2 8.71929 15.259 2.18059
2 10.9 15.2582 17.4381
1 9.80931 14.1681 1.08946
1 11.9888 14.1689 3.26988
1 9.80894 16.3487 3.26954
1 11.9888 16.3484 1.08933
2 13.0797 13.0789 17.4377
2 15.2588 13.0779 2.18049
2 13.0785 15.2591 2.18067
2 15.2594 15.2591 17.4379
1 14.1682 14.1689 1.08984
1 16.3482 14.1682 3.26946
1 14.1694 16.349 3.26969
1 16.348 16.3486 1.08983
2 17.4378 3.81958e-05 4.35923
2 2.17995 17.4379 6.53892
2 17.4375 2.18032 6.53977
2 2.17937 2.17919 4.35986
1 1.08958 1.09052 5.44917
1 3.26953 1.08967 7.62946
1 1.08925 3.26978 7.62969
1 3.26926 3.26995 5.44915
2 4.36046 17.4375 4.35941
2 6.53915 17.4379 6.5389
2 4.35931 2.17964 6.54041
2 6.53957 2.18055 4.3601
1 5.44975 1.0899 5.44974
1 7.62898 1.09046 7.62945
1 5.45011 3.27012 7.62952
2 7.62949 3.27034 5.44933
2 10.8989 0.000410694 6.5392
2 8.71993 2.18032 6.54014
2 10.8989 2.17952 4.35904
1 9.80888 1.08971 5.44895
1 11.9886 1.08928 7.62916
1 9.80972 3.2699 7.62877
1 11.9889 3.26936 5.44934
2 13.0781 6.97468e-05 4.35882
2 15.2585 17.4375 6.53993
2 13.0786 2.18046 6.53841
2 15.2578 2.17959 4.3599
1 14.1681 1.08931 5.44929
1 14.1682 3.27025 7.62938
1 16.348 3.26931 5.45014
2 17.438 4.36054 4.36033
2 2.18073 4.35951 6.53983
2 0.000217261 6.53873 6.54039
2 2.18023 6.54032 4.35964
1 1.0901 5.44906 5.44929
1 3.27031 5.44939 7.6293
1 1.08967 7.62946 7.62873
1 3.27003 7.62887 5.45008
2 4.35946 4.35936 4.36057
2 6.53881 4.35879 6.53903
2 4.35949 6.53909 6.53883
2 6.54003 6.53969 4.35967
1 5.44926 5.44952 5.44926
1 7.62978 5.45011 7.62894
2 8.71819 4.36005 4.36051
2 10.8994 4.36013 6.54025
2 8.71837 6.53931 6.53899
2 10.8998 6.53969 4.35906
1 9.80856 5.44952 5.4492
1 11.9894 5.45008 7.62949
1 9.80941 7.62904 7.62921
1 11.989 7.62971 5.45008
2 13.0797 4.35973 4.35894
2 15.2595 4.35897 6.54017
2 13.0796 6.53887 6.53981
2 15.2584 6.53947 4.35894
1 16.3481 5.44962 7.62955
1 14.1682 7.62899 7.62988
1 16.3491 7.62866 5.44988
2 0.000495201 8.71947 4.35988
2 2.18053 8.71868 6.53959
2 0.000985729 10.8987 6.53862
2 2.18023 10.8997 4.36047
1 1.09045 9.80856 5.44973
1 3.27008 9.80913 7.62963
1 1.0905 11.9895 7.62991
1 3.27019 11.9892 5.44901
2 4.36007 8.71887 4.35998
2 6.53923 8.71834 6.54003
2 4.3593 10.8985 6.53907
2 6.53963 10.8994 4.35914
1 5.44913 9.80932 5.44932
1 7.62987 9.80972 7.62938
1 5.44965 11.9895 7.62914
1 7.62865 11.989 5.44983
2 8.72014 8.71937 4.36049
2 10.8983 8.71939 6.53973
2 8.71819 10.8989 6.5404
2 10.8984 10.8991 4.35962
1 9.8095 9.80906 5.44987
1 11.9894 9.80892 7.62988
1 9.80895 11.9889 7.62944
1 11.9885 11.9886 5.44925
2 13.0788 8.71842 4.35934
2 15.2588 8.71833 6.54025
2 13.0782 10.8995 6.53892
2 15.2588 10.899 4.35888
1 14.1683 9.80845 5.44942
1 16.3485 9.80906 7.62871
1 14.1685 11.9893 7.62913
1 16.3479 11.9885 5.44932
2 3.12222e-05 13.0785 4.35957
2 2.17912 13.0797 6.53868
2 0.000141215 15.2587 6.5388
2 2.17947 15.2578 4.36034
1 3.26932 14.1691 7.62894
1 1.08942 16.3488 7.62885
1 3.26967 16.3482 5.44948
2 4.36001 13.0793 4.36024
2 6.53869 13.0789 6.53847
2 4.35924 15.258 6.54008
1 7.6298 14.1685 7.62974
1 5.44921 16.348 7.62965
2 8.71957 13.0792 4.36027
2 10.8981 13.0795 6.53924
2 8.71829 15.2579 6.54027
2 10.899 15.259 4.35902
1 9.80893 14.1692 5.44898
1 11.9894 14.169 7.62872
1 9.80922 16.349 7.62888
1 11.9889 16.3479 5.44943
2 13.0796 13.0792 4.36019
2 15.2588 13.0794 6.54033
2 13.0787 15.2579 6.53888
2 15.2585 15.2584 4.36015
1 14.169 14.1691 5.44937
1 14.1686 16.349 7.62922
1 16.3489 16.3482 5.44996
2 0.000816586 17.4378 8.71912
2 2.1807 2.18053 8.71949
2 4.35897 17.4381 8.71942
2 6.53996 2.17979 8.7195
2 8.71901 17.4374 8.71939
2 10.899 2.18024 8.71943
2 13.0785 0.000879457 8.7186
2 15.2581 2.17941 8.71912
2 2.17987 6.53885 8.71916
2 4.3602 4.35997 8.71888
2 6.53989 6.53986 8.71821
2 8.72002 4.36024 8.71885
2 10.8997 6.5392 8.71964
2 13.0785 4.35941 8.71859
2 0.000795639 8.71831 8.7187
2 2.17994 10.8987 8.72021
2 4.35968 8.71867 8.72003
2 6.5391 10.8988 8.71836
2 8.71908 8.71832 8.71875
2 10.8995 10.8992 8.71939
2 13.0778 8.71917 8.71993
2 15.2577 10.8989 8.71849
2 0.000763617 13.0785 8.71832
2 2.17975 15.2586 8.7189
2 4.35957 13.0783 8.71844
2 6.5392 15.2592 8.71988
2 8.72019 13.0785 8.71908
2 10.899 15.2588 8.71902
2 13.0784 13.0783 8.71955
2 15.2595 15.2576 8.71978
257
Atoms. Timestep: 2
2 17.4368 0.00137489 0.00191516
2 2.17792 17.4364 2.17801
2 0.00108333 2.18016 2.18152
2 2.18096 2.17914 17.4373
1 3.26877 1.08949 3.2685
1 1.08928 3.26883 3.27071
1 3.26893 3.27082 1.08922
2 4.36135 0.0017886 17.4377
2 6.53993 5.97879e-05 2.17861
2 4.36127 2.17915 2.1818
2 6.54123 2.18157 17.4367
1 5.45063 1.09095 1.08954
2 7.62825 1.09044 3.26996
1 5.44882 3.26886 3.27106
1 7.62879 3.2698 1.09047
2 8.71963 9.96439e-06 17.438
2 10.8994 17.4377 2.18075
2 8.71768 2.17994 2.17804
2 10.8993 2.17849 0.000772137
1 9.81028 1.08948 1.09025
1 11.9888 1.08884 3.26879
1 11.9887 3.269 1.08921
2 13.0791 17.4367 0.00103628
2 15.2589 17.438 2.17897
2 13.0804 2.1785 2.17945
2 15.2592 2.18139 0.00204929
1 14.1687 1.09048 1.09043
1 16.3477 1.0894 3.26954
1 14.1695 3.26983 3.26916
1 16.3481 3.26918 1.0903
2 17.4369 4.35941 0.000996268
2 2.17796 4.35766 2.17959
2 0.000558661 6.53924 2.18054
1 3.27016 5.44908 3.26882
1 1.09061 7.63059 3.26929
1 3.26949 7.62824 1.08892
2 4.35869 4.3608 17.4366
2 6.5392 4.36079 2.18074
2 4.35896 6.54023 2.17846
2 6.53747 6.54104 0.00076347
1 5.45053 5.44877 1.09093
1 7.62922 5.44899 3.2692
1 5.45035 7.62967 3.27078
1 7.62936 7.62965 1.09106
2 8.72084 4.3585 0.00117025
2 10.8997 4.35962 2.1807
2 8.71903 6.54031 2.18126
1 9.80847 5.45012 1.08879
1 11.9901 5.4498 3.26988
1 9.80799 7.62832 3.26919
1 11.988 7.62828 1.08927
2 13.0797 4.35886 0.000185779
2 15.2579 4.36118 2.17919
2 13.0779 6.53783 2.18184
2 15.2603 6.53749 0.00118607
1 14.1697 5.4499 1.08971
1 16.3486 5.4497 3.26905
1 14.1689 7.62969 3.27054
1 16.348 7.62994 1.08865
2 0.00146943 8.72042 0.001674
2 2.17945 8.71975 2.17845
2 0.000136107 10.9006 2.17971
2 2.18078 10.8982 17.4375
1 3.27023 9.81016 3.26889
1 1.09008 11.9881 3.26915
1 3.27033 11.9877 1.09019
2 4.36119 8.71791 2.8291e-06
2 6.54022 8.71739 2.18177
2 4.36048 10.9003 2.17863
2 6.53739 10.899 0.00168483
1 7.62871 9.8079 3.26937
1 5.44961 11.9894 3.27038
1 7.62839 11.9895 1.08984
2 8.74969 8.78582 0.336136
2 10.8974 8.7208 2.17867
2 8.71756 10.898 2.17934
2 10.9004 10.8984 0.0015013
1 9.80786 9.81032 1.08925
2 11.9899 9.80876 3.26987
1 9.81032 11.9892 3.27007
2 15.2575 8.72001 2.1779
2 13.0784 10.8987 2.18089
2 15.2584 10.9003 17.4381
1 14.1685 9.80996 1.0893
1 16.3477 9.80919 3.27027
1 14.1675 11.9877 3.27067
1 16.3486 11.989 1.08881
2 17.4383 13.0792 17.4366
2 2.17855 13.0771 2.18084
2 0.00114941 15.2595 2.18034
2 2.18016 15.2574 17.4382
1 1.08889 14.1675 1.0892
1 3.27021 14.1694 3.27103
1 1.08966 16.348 3.26962
1 3.27039 16.3497 1.09122
2 4.35772 13.0797 0.00103398
2 6.53901 13.0804 2.17795
2 4.35895 15.2586 2.18092
1 7.62886 14.1694 3.27058
1 5.44927 16.3484 3.27054
1 7.62946 16.3497 1.09066
2 8.72072 13.0774 17.4384
2 10.8997 13.0775 2.17841
2 8.71938 15.2593 2.18138
2 10.9009 15.2578 17.4377
1 9.80953 14.1675 1.08901
1 11.9887 14.1691 3.27006
1 9.80877 16.3488 3.26938
1 11.9887 16.3483 1.08875
2 13.0806 13.0791 17.4369
2 15.2589 13.077 2.18118
2 13.0782 15.2595 2.18155
2 15.2601 15.2595 17.4375
1 14.1677 14.169 1.08977
1 16.348 14.1677 3.26921
1 14.17 16.3495 3.26967
1 16.3476 16.3487 1.08975
2 17.4372 7.637e-05 4.35885
2 2.1801 17.4373 6.53843
2 17.4365 2.18087 6.54013
2 2.17894 2.17859 4.36011
2 1.08926 1.09114 5.44883
1 3.26936 1.08945 7.62964
1 1.08861 3.26985 7.63008
2 3.26882 3.2702 5.44881
2 4.36133 17.4365 4.35921
2 6.53889 17.4374 6.53841
2 4.35903 2.17948 6.54142
2 6.53979 2.18134 4.36066
1 5.45001 1.0899 5.44997
1 7.62866 1.09102 7.62961
1 5.45072 3.27053 7.62974
2 7.62979 3.27132 5.44906
2 10.8988 0.000818978 6.539
2 8.72061 2.18088 6.54083
2 10.8988 2.17923 4.35847
1 9.80865 1.08952 5.44841
1 11.9883 1.08867 7.62904
1 9.81033 3.27009 7.62825
1 11.9889 3.26902 5.44918
2 13.0774 0.000139389 4.35805
2 15.2583 17.4367 6.54044
2 13.0785 2.18112 6.53742
2 15.257 2.17938 4.36021
1 14.1676 1.08871 5.44908
1 14.1676 3.2708 7.62947
2 16.3475 3.26893 5.45079
2 17.4376 4.36148 4.36105
2 2.18167 4.35942 6.54027
2 0.000435131 6.53806 6.54138
2 2.18067 6.54124 4.35968
1 1.0903 5.44862 5.44908
1 3.27092 5.44928 7.62932
1 1.01036 7.6501 7.69873
1 3.27036 7.62844 5.45066
2 4.35931 4.35911 4.36154
2 6.53827 4.35793 6.53861
2 4.35936 6.53877 6.53823
2 6.54064 6.53996 4.35972
1 5.44903 5.44953 5.44902
1 7.63025 5.45073 7.62859
2 8.71714 4.36045 4.36147
2 10.8997 4.36066 6.54111
2 8.71755 6.5392 6.53859
2 10.9007 6.53999 4.35853
1 9.80802 5.44954 5.44889
1 11.99 5.45065 7.62969
1 9.80972 7.62878 7.62912
2 13.0806 4.35983 4.35825
2 13.0804 6.53837 6.54024
1 16.3478 5.44975 7.62979
1 14.1676 7.62869 7.63046
1 16.3496 7.62802 5.45026
2 0.000990315 8.71974 4.36017
2 2.18126 8.71816 6.53978
2 0.00197131 10.8984 6.53784
2 2.18067 10.9004 4.36135
1 1.091 9.80802 5.44995
1 3.27046 9.80916 7.62997
1 1.0911 11.99 7.63053
1 3.27068 11.9895 5.44852
2 4.36054 8.71855 4.36035
2 6.53907 8.71751 6.54065
2 4.35901 10.8981 6.53874
2 6.53987 10.8998 4.35868
1 5.44875 9.80953 5.44913
1 7.63045 9.81033 7.62947
1 5.44979 11.9901 7.62898
2 8.7211 8.71956 4.36137
2 10.8976 8.71958 6.54005
2 8.71719 10.8988 6.54141
2 10.8979 10.8991 4.35959
1 9.8099 9.80902 5.45025
1 11.9899 9.80873 7.63046
1 9.80879 11.9889 7.62959
1 11.9881 11.9882 5.449
2 13.0788 8.7177 4.35904
2 15.2589 8.71746 6.5411
2 13.0775 10.9001 6.53845
2 15.259 10.8991 4.35816
1 14.168 9.80781 5.44934
1 16.3485 9.80901 7.62814
1 16.3474 11.9881 5.44914
2 4.46178e-05 13.0782 4.35953
2 0.000282478 15.2589 6.5382
2 2.17915 15.2571 4.36107
1 3.26895 14.1694 7.62859
1 1.08893 16.3491 7.62842
1 3.26964 16.3479 5.44946
2 4.3604 13.0797 4.36086
2 6.538 13.079 6.53756
2 4.35886 15.2574 6.54077
1 7.63029 14.1683 7.63018
1 5.44893 16.3476 7.63001
2 8.71993 13.0797 4.36093
2 10.8973 13.0801 6.53908
2 8.7174 15.2572 6.54116
2 10.899 15.2594 4.35845
1 9.80875 14.1697 5.44846
1 11.9899 14.1694 7.62815
1 9.80933 16.3494 7.62846
1 11.9889 16.3472 5.44936
2 13.0805 13.0795 4.36078
2 15.2589 13.08 6.54124
2 13.0786 15.2571 6.53835
2 15.2585 15.2581 4.3607
1 14.1692 14.1696 5.44925
1 14.1685 16.3494 7.62914
1 16.3493 16.3479 5.45042
2 0.00163952 17.4372 8.71903
2 2.1816 2.18127 8.71975
2 4.35834 17.4377 8.71961
2 6.54052 2.17977 8.71976
2 8.71882 17.4364 8.71955
2 10.899 2.18068 8.71963
2 13.0781 0.00175879 8.71797
2 15.2575 2.17902 8.71904
2 2.17995 6.53829 8.7191
2 4.3608 4.36035 8.71854
2 6.54038 6.54031 8.71722
2 8.72085 4.36088 8.71848
2 10.9004 6.53901 8.72005
2 13.0783 4.35922 8.71794
2 2.18008 10.8984 8.72119
2 4.35975 8.71815 8.72085
2 6.5388 10.8987 8.71749
2 8.71896 8.71744 8.71828
2 13.0768 8.71914 8.72063
2 15.2568 10.8988 8.71776
2 0.00153356 13.0783 8.71743
2 2.1797 15.2587 8.71857
2 4.35953 13.0778 8.71765
2 6.53899 15.2598 8.72052
2 8.72118 13.0783 8.71894
2 10.899 15.259 8.71882
2 13.0781 13.0779 8.71986
2 15.2604 15.2566 8.72036
242
Atoms. Timestep: 3
2 17.1762 0.0765477 17.4241
2 2.17699 17.4354 2.17714
2 2.18154 2.17881 17.4367
1 3.2683 1.08929 3.2679
1 1.08897 3.2684 3.27121
1 3.26854 3.27139 1.08887
2 4.36223 0.00268267 17.4374
2 6.54025 0.000134258 2.17808
2 4.36211 2.17882 2.1828
2 6.54214 2.18245 17.4358
1 5.45119 1.09147 1.08934
2 7.62739 1.09093 3.27009
1 5.44848 3.26844 3.27174
1 7.62854 3.26985 1.09075
2 8.71984 1.21905e-05 17.4378
2 10.8996 17.4374 2.18123
2 8.71686 2.17994 2.1772
2 10.8994 2.17784 0.00120021
1 9.81087 1.08927 1.09041
1 11.9887 1.08832 3.26833
1 11.9886 3.26864 1.08885
2 13.0793 17.4358 0.00159644
2 15.2591 17.4378 2.17856
2 13.0812 2.17784 2.17928
2 15.2594 2.18218 0.00311587
1 14.1687 1.09078 1.09067
1 16.3474 1.08916 3.26945
1 14.1699 3.2699 3.2689
1 16.348 3.26892 1.09048
2 17.4362 4.35931 0.00151481
2 2.17706 4.35667 2.17951
2 0.000818219 6.53917 2.18093
1 3.27039 5.44888 3.26838
1 1.09096 7.63124 3.26908
1 3.26938 7.62772 1.08843
2 4.35824 4.3614 17.4357
2 6.5391 4.36138 2.18122
2 4.35864 6.54064 2.17778
2 6.53651 6.54186 0.00118626
1 5.45104 5.4484 1.09143
1 7.62919 5.44874 3.26895
1 5.45077 7.62986 3.27132
2 8.72166 4.35795 0.001794
2 8.71895 6.54077 2.18199
1 9.80814 5.45042 1.08823
1 11.9907 5.44996 3.26997
1 9.80744 7.62783 3.26894
1 11.9875 7.62777 1.08896
2 13.0802 4.35849 0.000320779
2 15.2576 4.36197 2.17889
2 13.0775 6.53704 2.18285
2 15.2612 6.53653 0.00182103
1 14.1702 5.45011 1.08959
1 16.3486 5.44979 3.26873
1 14.169 7.62988 3.27096
1 16.3478 7.63026 1.08802
2 0.00219768 8.72103 0.00253137
2 2.1793 8.72001 2.1778
2 0.00018617 10.9014 2.17969
2 2.18128 10.8979 17.437
1 3.27049 9.81068 3.26848
1 1.09018 11.9877 3.26887
1 3.27065 11.9872 1.09032
2 4.36198 8.71725 1.16046e-05
2 6.54065 8.71645 2.18278
2 4.36089 10.901 2.17807
2 6.53639 10.899 0.00253684
1 7.62842 9.8073 3.26921
1 5.44968 11.9896 3.27072
1 7.62793 11.9898 1.0898
2 8.749 8.78562 0.33652
2 10.8967 8.72168 2.17818
2 8.71674 10.8975 2.17911
2 10.9011 10.8981 0.00226086
1 9.80725 9.81094 1.08893
1 9.81094 11.9893 3.27025
2 15.257 8.72041 2.17694
2 13.0781 10.8985 2.18155
2 15.2583 10.901 17.438
1 14.1683 9.81039 1.089
1 16.3474 9.80924 3.27055
1 14.167 11.9871 3.27115
2 17.4382 13.0794 17.4358
2 2.17792 13.0763 2.18136
2 0.00172356 15.2599 2.18062
2 2.18033 15.2569 17.4382
1 1.08838 14.1669 1.08884
1 3.27047 14.1698 3.2717
1 1.08954 16.3478 3.26959
1 3.27074 16.3503 1.09186
2 4.35677 13.0802 0.00157023
2 4.35862 15.2586 2.18149
2 7.62863 14.1697 3.27101
1 5.44915 16.3483 3.27095
1 7.62955 16.3503 1.09104
2 8.72148 13.0767 17.4384
2 10.9 13.0769 2.17774
2 8.71946 15.2597 2.18217
2 10.9019 15.2575 17.4374
1 9.80975 14.167 1.08854
1 11.9886 14.1692 3.27024
1 11.9886 16.3482 1.08816
2 13.0816 13.0792 17.4362
2 15.2591 13.0761 2.18187
2 13.0778 15.26 2.18242
2 15.2609 15.26 17.4371
1 14.1672 14.1692 1.0897
1 16.3477 14.1672 3.26897
1 14.1707 16.35 3.26966
1 16.3471 16.3488 1.08966
2 17.4366 0.000166304 4.35853
2 17.4356 2.18143 6.54037
2 2.17851 2.17798 4.36047
2 1.08877 1.09209 5.44833
1 3.26919 1.08922 7.62982
1 1.08796 3.26993 7.63048
2 3.26814 3.27058 5.44828
2 4.3622 17.4356 4.35903
2 6.5386 17.437 6.53794
2 4.35869 2.17937 6.54238
2 6.54012 2.18214 4.36122
1 7.62834 1.09157 7.62978
1 5.45134 3.27094 7.62998
2 7.63009 3.27229 5.44879
2 10.8988 0.00122471 6.5388
2 8.72124 2.1815 6.54146
2 10.8987 2.17892 4.35792
1 9.80843 1.08933 5.44787
1 11.988 1.08805 7.62893
1 9.81095 3.27029 7.62774
1 11.9888 3.26869 5.44902
2 13.0766 0.000208824 4.35727
2 15.2581 17.4358 6.54094
2 13.0783 2.18178 6.53642
2 15.2562 2.17922 4.36057
1 14.167 1.08813 5.44887
1 14.1671 3.27134 7.62957
2 16.3468 3.26826 5.45171
2 17.4371 4.36237 4.36184
2 2.18265 4.35927 6.54066
2 0.000644607 6.53739 6.54237
2 2.1811 6.54216 4.35973
1 3.27154 5.44917 7.62935
1 1.01013 7.65026 7.69817
1 3.27069 7.62802 5.45125
2 4.35911 4.35881 4.36256
2 6.53778 4.35702 6.53814
2 4.35922 6.53843 6.53762
2 6.54123 6.54022 4.35976
1 5.44881 5.44956 5.44879
1 7.63071 5.45135 7.62825
2 8.71601 4.3608 4.36251
2 10.9001 4.36119 6.54196
2 8.71675 6.53907 6.53822
2 10.9015 6.54026 4.35797
1 9.80749 5.44956 5.44858
1 11.9905 5.45123 7.62989
1 9.81003 7.62852 7.62904
2 13.0815 4.35992 4.35755
2 13.0812 6.53785 6.5407
1 16.3474 5.44988 7.63004
1 14.1671 7.62838 7.63104
1 16.3502 7.62738 5.45065
2 0.00148341 8.72 4.36045
2 2.18199 8.71765 6.53997
2 0.00296072 10.8981 6.53705
2 2.1811 10.9011 4.36222
1 1.09155 9.80747 5.45018
1 3.27085 9.80918 7.63032
1 3.27117 11.9899 5.44803
2 4.36101 8.71822 4.36073
2 6.5389 8.71671 6.54128
2 4.35871 10.8976 6.53842
1 5.44838 9.80973 5.44895
1 7.63102 9.81093 7.62957
1 5.44993 11.9908 7.62883
2 8.72208 8.71977 4.36223
2 10.8969 8.71979 6.5404
2 8.7162 10.8986 6.54243
2 10.8974 10.899 4.3595
1 9.8103 9.80897 5.45062
1 11.9904 9.80854 7.63105
1 9.80863 11.9889 7.62975
1 11.9877 11.9879 5.44875
2 13.0788 8.71705 4.35866
2 15.2591 8.71658 6.54195
2 13.0769 10.9006 6.53795
2 15.2592 10.8991 4.35744
1 14.1676 9.80716 5.44926
1 16.3485 9.80897 7.62756
1 16.3468 11.9877 5.44897
2 4.01654e-05 13.0779 4.35946
2 0.000423839 15.2591 6.53761
2 2.17885 15.2564 4.36178
2 3.26858 14.1698 7.62825
1 3.26961 16.3477 5.44944
2 4.36077 13.0801 4.36146
2 6.5373 13.0791 6.53668
2 4.35847 15.2568 6.54148
1 7.63078 14.1681 7.63063
1 5.44865 16.3471 7.63038
2 8.72031 13.0802 4.36159
2 10.8964 13.0808 6.53893
2 8.71653 15.2565 6.54207
2 10.899 15.2597 4.35788
1 9.80857 14.1702 5.44794
1 11.9905 14.1697 7.62759
1 9.80944 16.3499 7.62806
1 11.989 16.3466 5.44929
2 13.0813 13.0799 4.36137
2 13.0785 15.2564 6.53783
2 15.2584 15.2579 4.36124
1 14.1695 14.17 5.44913
1 14.1684 16.3499 7.62908
1 16.3497 16.3475 5.45089
2 0.00246871 17.4366 8.71894
2 2.1825 2.182 8.71999
2 4.35771 17.4374 8.71977
2 6.54108 2.17976 8.72
2 8.71863 17.4355 8.71968
2 10.8991 2.18112 8.7198
2 13.0778 0.00263789 8.71731
2 15.257 2.17864 8.71894
2 2.18002 6.53774 8.71901
2 4.36141 4.36072 8.71816
2 6.54089 6.54075 8.71622
2 8.72167 4.36152 8.71808
2 10.9011 6.53881 8.72043
2 13.078 4.35903 8.71727
2 2.18022 10.8981 8.72214
2 4.35982 8.71764 8.72167
2 6.5385 10.8985 8.71659
2 8.71884 8.71656 8.71777
2 13.0758 8.7191 8.72131
2 15.2558 10.8986 8.71702
2 0.00231161 13.078 8.71653
2 4.3595 13.0773 8.71684
2 6.53879 15.2604 8.72114
2 8.72217 13.078 8.71877
2 10.899 15.2592 8.71858
2 13.0777 13.0774 8.72017
2 15.2613 15.2556 8.72093
221
Atoms. Timestep: 4
2 17.1754 0.0772283 17.4251
2 2.17609 17.4344 2.17628
1 3.26784 1.08909 3.2673
1 1.08866 3.26797 3.27172
1 3.26814 3.27195 1.0885
2 4.3631 0.00357646 17.4371
2 6.54063 0.000256299 2.17759
2 4.36294 2.17849 2.1838
2 6.54306 2.18334 17.4351
1 5.45176 1.092 1.08913
2 7.62646 1.09149 3.27016
1 5.44814 3.26802 3.27242
1 7.62828 3.2699 1.09101
2 8.72004 1.25905e-05 17.4377
2 10.8998 17.437 2.1817
2 8.71596 2.17986 2.17641
2 10.8995 2.17718 0.00165806
1 9.81146 1.08906 1.09056
1 11.9887 1.08779 3.26787
2 13.0794 17.435 0.00218458
2 15.2593 17.4376 2.17814
2 13.082 2.17719 2.1791
1 14.1688 1.09107 1.09091
1 16.347 1.08891 3.26938
1 14.1703 3.26998 3.26864
2 16.3478 3.26866 1.09065
2 17.4354 4.3592 0.00204154
2 2.17617 4.35566 2.17944
2 0.00105799 6.53913 2.18134
1 3.27061 5.44867 3.26794
1 1.09131 7.63188 3.26886
1 3.26929 7.62721 1.08793
2 4.35778 4.362 17.4349
2 6.539 4.36197 2.18169
2 4.35832 6.54104 2.17711
2 6.53554 6.54268 0.00161546
1 5.45156 5.44804 1.09193
1 7.62916 5.44849 3.26869
2 8.71888 6.54121 2.18273
1 9.80782 5.45073 1.08766
1 11.9912 5.45012 3.27007
1 9.80689 7.62734 3.26869
1 11.9871 7.62727 1.08866
2 13.0806 4.35813 0.000485703
2 15.2572 4.36275 2.17859
2 13.077 6.53625 2.18386
2 15.2621 6.53558 0.00248384
1 14.1707 5.45031 1.08947
1 16.3486 5.44988 3.2684
1 14.169 7.63008 3.27137
1 16.3475 7.63058 1.08737
2 0.00291949 8.72163 0.00339509
2 2.17916 8.72024 2.17715
2 0.000235927 10.9022 2.17969
2 2.18179 10.8975 17.4366
1 3.27075 9.81121 3.26806
1 1.09028 11.9874 3.2686
1 3.27097 11.9866 1.09045
2 4.36275 8.71659 2.45297e-05
2 6.54108 8.71552 2.18382
2 4.36129 10.9017 2.17753
2 6.5354 10.8991 0.00339708
1 7.62812 9.8067 3.26904
1 5.44974 11.9899 3.27107
1 7.62747 11.9901 1.08975
2 8.74828 8.78541 0.336881
2 10.8959 8.72254 2.17767
2 8.71591 10.897 2.17889
2 10.9018 10.8977 0.00302612
1 9.81155 11.9895 3.27043
2 15.2564 8.7208 2.17599
2 13.0779 10.8982 2.18219
2 15.2582 10.9017 17.438
2 14.1682 9.81083 1.08869
1 14.1664 11.9865 3.27163
2 17.4382 13.0796 17.4349
2 2.1773 13.0754 2.18189
2 0.00229787 15.2604 2.18089
2 2.18051 15.2563 17.4382
1 1.08787 14.1663 1.08847
1 3.27073 14.1701 3.27237
1 1.08941 16.3475 3.26955
1 3.27108 16.3508 1.09249
2 4.35581 13.0806 0.00211284
2 4.35826 15.2586 2.18209
2 7.62843 14.1702 3.27168
1 5.44904 16.3482 3.27136
1 7.62964 16.3509 1.09142
2 8.72223 13.0761 1.91389e-05
2 8.71946 15.2599 2.18301
2 10.9029 15.2571 17.4372
1 9.80997 14.1664 1.08806
1 11.9886 14.1694 3.27041
1 11.9885 16.3481 1.08756
2 13.0825 13.0794 17.4355
2 15.2592 13.0752 2.18258
2 13.0775 15.2604 2.1833
1 14.1666 14.1694 1.08962
1 16.3474 14.1667 3.26873
1 14.1713 16.3505 3.26965
1 16.3467 16.3489 1.08956
2 17.4362 0.000309302 4.35826
2 17.4347 2.18201 6.54047
2 2.17808 2.17737 4.36094
2 1.0882 1.0931 5.44777
1 3.26902 1.089 7.63001
1 1.08732 3.26999 7.63088
2 3.26746 3.27096 5.44775
2 4.36305 17.4346 4.35882
2 6.53832 17.4365 6.5375
2 4.35828 2.17933 6.54329
2 6.54058 2.18294 4.36176
1 7.62803 1.09213 7.62995
1 5.45195 3.27136 7.63022
2 7.63039 3.27326 5.44851
2 10.8987 0.00162775 6.5386
2 8.72181 2.18217 6.54204
2 10.8986 2.1786 4.35738
1 9.80821 1.08915 5.44733
1 11.9877 1.08743 7.62882
1 9.81157 3.27049 7.62724
1 11.9888 3.26837 5.44887
2 13.0759 0.000277947 4.35649
2 15.2579 17.4349 6.54141
2 13.0781 2.18244 6.53543