512
Atoms. Timestep: 0
2 2.1798 0 -6.5394
2 0 2.1798 -6.5394
1 1.0899 1.0899 -7.6293
1 3.2697 1.0899 -5.4495
1 1.0899 3.2697 -5.4495
1 3.2697 3.2697 -7.6293
2 6.5394 0 -6.5394
2 4.3596 2.1798 -6.5394
1 5.4495 1.0899 -7.6293
1 7.6293 1.0899 -5.4495
1 5.4495 3.2697 -5.4495
1 7.6293 3.2697 -7.6293
2 10.899 0 -6.5394
2 8.7192 2.1798 -6.5394
1 9.8091 1.0899 -7.6293
1 11.9889 1.0899 -5.4495
1 9.8091 3.2697 -5.4495
1 11.9889 3.2697 -7.6293
2 15.2586 0 -6.5394
2 13.0788 2.1798 -6.5394
1 14.1687 1.0899 -7.6293
1 16.3485 1.0899 -5.4495
1 14.1687 3.2697 -5.4495
1 16.3485 3.2697 -7.6293
2 2.1798 4.3596 -6.5394
2 0 6.5394 -6.5394
1 1.0899 5.4495 -7.6293
1 3.2697 5.4495 -5.4495
1 1.0899 7.6293 -5.4495
1 3.2697 7.6293 -7.6293
2 6.5394 4.3596 -6.5394
2 4.3596 6.5394 -6.5394
1 5.4495 5.4495 -7.6293
1 7.6293 5.4495 -5.4495
1 5.4495 7.6293 -5.4495
1 7.6293 7.6293 -7.6293
2 10.899 4.3596 -6.5394
2 8.7192 6.5394 -6.5394
1 9.8091 5.4495 -7.6293
1 11.9889 5.4495 -5.4495
1 9.8091 7.6293 -5.4495
1 11.9889 7.6293 -7.6293
2 15.2586 4.3596 -6.5394
2 13.0788 6.5394 -6.5394
1 14.1687 5.4495 -7.6293
1 16.3485 5.4495 -5.4495
1 14.1687 7.6293 -5.4495
1 16.3485 7.6293 -7.6293
2 2.1798 8.7192 -6.5394
2 0 10.899 -6.5394
1 1.0899 9.8091 -7.6293
1 3.2697 9.8091 -5.4495
1 1.0899 11.9889 -5.4495
1 3.2697 11.9889 -7.6293
2 6.5394 8.7192 -6.5394
2 4.3596 10.899 -6.5394
1 5.4495 9.8091 -7.6293
1 7.6293 9.8091 -5.4495
1 5.4495 11.9889 -5.4495
1 7.6293 11.9889 -7.6293
2 10.899 8.7192 -6.5394
2 8.7192 10.899 -6.5394
1 9.8091 9.8091 -7.6293
1 11.9889 9.8091 -5.4495
1 9.8091 11.9889 -5.4495
1 11.9889 11.9889 -7.6293
2 15.2586 8.7192 -6.5394
2 13.0788 10.899 -6.5394
1 14.1687 9.8091 -7.6293
1 16.3485 9.8091 -5.4495
1 14.1687 11.9889 -5.4495
1 16.3485 11.9889 -7.6293
2 2.1798 13.0788 -6.5394
2 0 15.2586 -6.5394
1 1.0899 14.1687 -7.6293
1 3.2697 14.1687 -5.4495
1 1.0899 16.3485 -5.4495
1 3.2697 16.3485 -7.6293
2 6.5394 13.0788 -6.5394
2 4.3596 15.2586 -6.5394
1 5.4495 14.1687 -7.6293
1 7.6293 14.1687 -5.4495
1 5.4495 16.3485 -5.4495
1 7.6293 16.3485 -7.6293
2 10.899 13.0788 -6.5394
2 8.7192 15.2586 -6.5394
1 9.8091 14.1687 -7.6293
1 11.9889 14.1687 -5.4495
1 9.8091 16.3485 -5.4495
1 11.9889 16.3485 -7.6293
2 15.2586 13.0788 -6.5394
2 13.0788 15.2586 -6.5394
1 14.1687 14.1687 -7.6293
1 16.3485 14.1687 -5.4495
1 14.1687 16.3485 -5.4495
1 16.3485 16.3485 -7.6293
2 0 0 -4.3596
2 2.1798 0 -2.1798
2 0 2.1798 -2.1798
2 2.1798 2.1798 -4.3596
1 1.0899 1.0899 -3.2697
1 3.2697 1.0899 -1.0899
1 1.0899 3.2697 -1.0899
1 3.2697 3.2697 -3.2697
2 4.3596 0 -4.3596
2 6.5394 0 -2.1798
2 4.3596 2.1798 -2.1798
2 6.5394 2.1798 -4.3596
1 5.4495 1.0899 -3.2697
1 7.6293 1.0899 -1.0899
1 5.4495 3.2697 -1.0899
1 7.6293 3.2697 -3.2697
2 8.7192 0 -4.3596
2 10.899 0 -2.1798
2 8.7192 2.1798 -2.1798
2 10.899 2.1798 -4.3596
1 9.8091 1.0899 -3.2697
1 11.9889 1.0899 -1.0899
1 9.8091 3.2697 -1.0899
1 11.9889 3.2697 -3.2697
2 13.0788 0 -4.3596
2 15.2586 0 -2.1798
2 13.0788 2.1798 -2.1798
2 15.2586 2.1798 -4.3596
1 14.1687 1.0899 -3.2697
1 16.3485 1.0899 -1.0899
1 14.1687 3.2697 -1.0899
1 16.3485 3.2697 -3.2697
2 0 4.3596 -4.3596
2 2.1798 4.3596 -2.1798
2 0 6.5394 -2.1798
2 2.1798 6.5394 -4.3596
1 1.0899 5.4495 -3.2697
1 3.2697 5.4495 -1.0899
1 1.0899 7.6293 -1.0899
1 3.2697 7.6293 -3.2697
2 4.3596 4.3596 -4.3596
2 6.5394 4.3596 -2.1798
2 4.3596 6.5394 -2.1798
2 6.5394 6.5394 -4.3596
1 5.4495 5.4495 -3.2697
1 7.6293 5.4495 -1.0899
1 5.4495 7.6293 -1.0899
1 7.6293 7.6293 -3.2697
2 8.7192 4.3596 -4.3596
2 10.899 4.3596 -2.1798
2 8.7192 6.5394 -2.1798
2 10.899 6.5394 -4.3596
1 9.8091 5.4495 -3.2697
1 11.9889 5.4495 -1.0899
1 9.8091 7.6293 -1.0899
1 11.9889 7.6293 -3.2697
2 13.0788 4.3596 -4.3596
2 15.2586 4.3596 -2.1798
2 13.0788 6.5394 -2.1798
2 15.2586 6.5394 -4.3596
1 14.1687 5.4495 -3.2697
1 16.3485 5.4495 -1.0899
1 14.1687 7.6293 -1.0899
1 16.3485 7.6293 -3.2697
2 0 8.7192 -4.3596
2 2.1798 8.7192 -2.1798
2 0 10.899 -2.1798
2 2.1798 10.899 -4.3596
1 1.0899 9.8091 -3.2697
1 3.2697 9.8091 -1.0899
1 1.0899 11.9889 -1.0899
1 3.2697 11.9889 -3.2697
2 4.3596 8.7192 -4.3596
2 6.5394 8.7192 -2.1798
2 4.3596 10.899 -2.1798
2 6.5394 10.899 -4.3596
1 5.4495 9.8091 -3.2697
1 7.6293 9.8091 -1.0899
1 5.4495 11.9889 -1.0899
1 7.6293 11.9889 -3.2697
2 8.7192 8.7192 -4.3596
2 10.899 8.7192 -2.1798
2 8.7192 10.899 -2.1798
2 10.899 10.899 -4.3596
1 9.8091 9.8091 -3.2697
1 11.9889 9.8091 -1.0899
1 9.8091 11.9889 -1.0899
1 11.9889 11.9889 -3.2697
2 13.0788 8.7192 -4.3596
2 15.2586 8.7192 -2.1798
2 13.0788 10.899 -2.1798
2 15.2586 10.899 -4.3596
1 14.1687 9.8091 -3.2697
1 16.3485 9.8091 -1.0899
1 14.1687 11.9889 -1.0899
1 16.3485 11.9889 -3.2697
2 0 13.0788 -4.3596
2 2.1798 13.0788 -2.1798
2 0 15.2586 -2.1798
2 2.1798 15.2586 -4.3596
1 1.0899 14.1687 -3.2697
1 3.2697 14.1687 -1.0899
1 1.0899 16.3485 -1.0899
1 3.2697 16.3485 -3.2697
2 4.3596 13.0788 -4.3596
2 6.5394 13.0788 -2.1798
2 4.3596 15.2586 -2.1798
2 6.5394 15.2586 -4.3596
1 5.4495 14.1687 -3.2697
1 7.6293 14.1687 -1.0899
1 5.4495 16.3485 -1.0899
1 7.6293 16.3485 -3.2697
2 8.7192 13.0788 -4.3596
2 10.899 13.0788 -2.1798
2 8.7192 15.2586 -2.1798
2 10.899 15.2586 -4.3596
1 9.8091 14.1687 -3.2697
1 11.9889 14.1687 -1.0899
1 9.8091 16.3485 -1.0899
1 11.9889 16.3485 -3.2697
2 13.0788 13.0788 -4.3596
2 15.2586 13.0788 -2.1798
2 13.0788 15.2586 -2.1798
2 15.2586 15.2586 -4.3596
1 14.1687 14.1687 -3.2697
1 16.3485 14.1687 -1.0899
1 14.1687 16.3485 -1.0899
1 16.3485 16.3485 -3.2697
2 0 0 0
2 2.1798 0 2.1798
2 0 2.1798 2.1798
2 2.1798 2.1798 0
1 1.0899 1.0899 1.0899
1 3.2697 1.0899 3.2697
1 1.0899 3.2697 3.2697
1 3.2697 3.2697 1.0899
2 4.3596 0 0
2 6.5394 0 2.1798
2 4.3596 2.1798 2.1798
2 6.5394 2.1798 0
1 5.4495 1.0899 1.0899
1 7.6293 1.0899 3.2697
1 5.4495 3.2697 3.2697
1 7.6293 3.2697 1.0899
2 8.7192 0 0
2 10.899 0 2.1798
2 8.7192 2.1798 2.1798
2 10.899 2.1798 0
1 9.8091 1.0899 1.0899
1 11.9889 1.0899 3.2697
1 9.8091 3.2697 3.2697
1 11.9889 3.2697 1.0899
2 13.0788 0 0
2 15.2586 0 2.1798
2 13.0788 2.1798 2.1798
2 15.2586 2.1798 0
1 14.1687 1.0899 1.0899
1 16.3485 1.0899 3.2697
1 14.1687 3.2697 3.2697
1 16.3485 3.2697 1.0899
2 0 4.3596 0
2 2.1798 4.3596 2.1798
2 0 6.5394 2.1798
2 2.1798 6.5394 0
1 1.0899 5.4495 1.0899
1 3.2697 5.4495 3.2697
1 1.0899 7.6293 3.2697
1 3.2697 7.6293 1.0899
2 4.3596 4.3596 0
2 6.5394 4.3596 2.1798
2 4.3596 6.5394 2.1798
2 6.5394 6.5394 0
1 5.4495 5.4495 1.0899
1 7.6293 5.4495 3.2697
1 5.4495 7.6293 3.2697
1 7.6293 7.6293 1.0899
2 8.7192 4.3596 0
2 10.899 4.3596 2.1798
2 8.7192 6.5394 2.1798
2 10.899 6.5394 0
1 9.8091 5.4495 1.0899
1 11.9889 5.4495 3.2697
1 9.8091 7.6293 3.2697
1 11.9889 7.6293 1.0899
2 13.0788 4.3596 0
2 15.2586 4.3596 2.1798
2 13.0788 6.5394 2.1798
2 15.2586 6.5394 0
1 14.1687 5.4495 1.0899
1 16.3485 5.4495 3.2697
1 14.1687 7.6293 3.2697
1 16.3485 7.6293 1.0899
2 0 8.7192 0
2 2.1798 8.7192 2.1798
2 0 10.899 2.1798
2 2.1798 10.899 0
1 1.0899 9.8091 1.0899
1 3.2697 9.8091 3.2697
1 1.0899 11.9889 3.2697
1 3.2697 11.9889 1.0899
2 4.3596 8.7192 0
2 6.5394 8.7192 2.1798
2 4.3596 10.899 2.1798
2 6.5394 10.899 0
1 5.4495 9.8091 1.0899
1 7.6293 9.8091 3.2697
1 5.4495 11.9889 3.2697
1 7.6293 11.9889 1.0899
2 8.7192 8.7192 0
2 10.899 8.7192 2.1798
2 8.7192 10.899 2.1798
2 10.899 10.899 0
1 9.8091 9.8091 1.0899
1 11.9889 9.8091 3.2697
1 9.8091 11.9889 3.2697
1 11.9889 11.9889 1.0899
2 13.0788 8.7192 0
2 15.2586 8.7192 2.1798
2 13.0788 10.899 2.1798
2 15.2586 10.899 0
1 14.1687 9.8091 1.0899
1 16.3485 9.8091 3.2697
1 14.1687 11.9889 3.2697
1 16.3485 11.9889 1.0899
2 0 13.0788 0
2 2.1798 13.0788 2.1798
2 0 15.2586 2.1798
2 2.1798 15.2586 0
1 1.0899 14.1687 1.0899
1 3.2697 14.1687 3.2697
1 1.0899 16.3485 3.2697
1 3.2697 16.3485 1.0899
2 4.3596 13.0788 0
2 6.5394 13.0788 2.1798
2 4.3596 15.2586 2.1798
2 6.5394 15.2586 0
1 5.4495 14.1687 1.0899
1 7.6293 14.1687 3.2697
1 5.4495 16.3485 3.2697
1 7.6293 16.3485 1.0899
2 8.7192 13.0788 0
2 10.899 13.0788 2.1798
2 8.7192 15.2586 2.1798
2 10.899 15.2586 0
1 9.8091 14.1687 1.0899
1 11.9889 14.1687 3.2697
1 9.8091 16.3485 3.2697
1 11.9889 16.3485 1.0899
2 13.0788 13.0788 0
2 15.2586 13.0788 2.1798
2 13.0788 15.2586 2.1798
2 15.2586 15.2586 0
1 14.1687 14.1687 1.0899
1 16.3485 14.1687 3.2697
1 14.1687 16.3485 3.2697
1 16.3485 16.3485 1.0899
2 0 0 4.3596
2 2.1798 0 6.5394
2 0 2.1798 6.5394
2 2.1798 2.1798 4.3596
1 1.0899 1.0899 5.4495
1 3.2697 1.0899 7.6293
1 1.0899 3.2697 7.6293
1 3.2697 3.2697 5.4495
2 4.3596 0 4.3596
2 6.5394 0 6.5394
2 4.3596 2.1798 6.5394
2 6.5394 2.1798 4.3596
1 5.4495 1.0899 5.4495
1 7.6293 1.0899 7.6293
1 5.4495 3.2697 7.6293
1 7.6293 3.2697 5.4495
2 8.7192 0 4.3596
2 10.899 0 6.5394
2 8.7192 2.1798 6.5394
2 10.899 2.1798 4.3596
1 9.8091 1.0899 5.4495
1 11.9889 1.0899 7.6293
1 9.8091 3.2697 7.6293
1 11.9889 3.2697 5.4495
2 13.0788 0 4.3596
2 15.2586 0 6.5394
2 13.0788 2.1798 6.5394
2 15.2586 2.1798 4.3596
1 14.1687 1.0899 5.4495
1 16.3485 1.0899 7.6293
1 14.1687 3.2697 7.6293
1 16.3485 3.2697 5.4495
2 0 4.3596 4.3596
2 2.1798 4.3596 6.5394
2 0 6.5394 6.5394
2 2.1798 6.5394 4.3596
1 1.0899 5.4495 5.4495
1 3.2697 5.4495 7.6293
1 1.0899 7.6293 7.6293
1 3.2697 7.6293 5.4495
2 4.3596 4.3596 4.3596
2 6.5394 4.3596 6.5394
2 4.3596 6.5394 6.5394
2 6.5394 6.5394 4.3596
1 5.4495 5.4495 5.4495
1 7.6293 5.4495 7.6293
1 5.4495 7.6293 7.6293
1 7.6293 7.6293 5.4495
2 8.7192 4.3596 4.3596
2 10.899 4.3596 6.5394
2 8.7192 6.5394 6.5394
2 10.899 6.5394 4.3596
1 9.8091 5.4495 5.4495
1 11.9889 5.4495 7.6293
1 9.8091 7.6293 7.6293
1 11.9889 7.6293 5.4495
2 13.0788 4.3596 4.3596
2 15.2586 4.3596 6.5394
2 13.0788 6.5394 6.5394
2 15.2586 6.5394 4.3596
1 14.1687 5.4495 5.4495
1 16.3485 5.4495 7.6293
1 14.1687 7.6293 7.6293
1 16.3485 7.6293 5.4495
2 0 8.7192 4.3596
2 2.1798 8.7192 6.5394
2 0 10.899 6.5394
2 2.1798 10.899 4.3596
1 1.0899 9.8091 5.4495
1 3.2697 9.8091 7.6293
1 1.0899 11.9889 7.6293
1 3.2697 11.9889 5.4495
2 4.3596 8.7192 4.3596
2 6.5394 8.7192 6.5394
2 4.3596 10.899 6.5394
2 6.5394 10.899 4.3596
1 5.4495 9.8091 5.4495
1 7.6293 9.8091 7.6293
1 5.4495 11.9889 7.6293
1 7.6293 11.9889 5.4495
2 8.7192 8.7192 4.3596
2 10.899 8.7192 6.5394
2 8.7192 10.899 6.5394
2 10.899 10.899 4.3596
1 9.8091 9.8091 5.4495
1 11.9889 9.8091 7.6293
1 9.8091 11.9889 7.6293
1 11.9889 11.9889 5.4495
2 13.0788 8.7192 4.3596
2 15.2586 8.7192 6.5394
2 13.0788 10.899 6.5394
2 15.2586 10.899 4.3596
1 14.1687 9.8091 5.4495
1 16.3485 9.8091 7.6293
1 14.1687 11.9889 7.6293
1 16.3485 11.9889 5.4495
2 0 13.0788 4.3596
2 2.1798 13.0788 6.5394
2 0 15.2586 6.5394
2 2.1798 15.2586 4.3596
1 1.0899 14.1687 5.4495
1 3.2697 14.1687 7.6293
1 1.0899 16.3485 7.6293
1 3.2697 16.3485 5.4495
2 4.3596 13.0788 4.3596
2 6.5394 13.0788 6.5394
2 4.3596 15.2586 6.5394
2 6.5394 15.2586 4.3596
1 5.4495 14.1687 5.4495
1 7.6293 14.1687 7.6293
1 5.4495 16.3485 7.6293
1 7.6293 16.3485 5.4495
2 8.7192 13.0788 4.3596
2 10.899 13.0788 6.5394
2 8.7192 15.2586 6.5394
2 10.899 15.2586 4.3596
1 9.8091 14.1687 5.4495
1 11.9889 14.1687 7.6293
1 9.8091 16.3485 7.6293
1 11.9889 16.3485 5.4495
2 13.0788 13.0788 4.3596
2 15.2586 13.0788 6.5394
2 13.0788 15.2586 6.5394
2 15.2586 15.2586 4.3596
1 14.1687 14.1687 5.4495
1 16.3485 14.1687 7.6293
1 14.1687 16.3485 7.6293
1 16.3485 16.3485 5.4495
2 0 0 8.7192
2 2.1798 2.1798 8.7192
2 4.3596 0 8.7192
2 6.5394 2.1798 8.7192
2 8.7192 0 8.7192
2 10.899 2.1798 8.7192
2 13.0788 0 8.7192
2 15.2586 2.1798 8.7192
2 0 4.3596 8.7192
2 2.1798 6.5394 8.7192
2 4.3596 4.3596 8.7192
2 6.5394 6.5394 8.7192
2 8.7192 4.3596 8.7192
2 10.899 6.5394 8.7192
2 13.0788 4.3596 8.7192
2 15.2586 6.5394 8.7192
2 0 8.7192 8.7192
2 2.1798 10.899 8.7192
2 4.3596 8.7192 8.7192
2 6.5394 10.899 8.7192
2 8.7192 8.7192 8.7192
2 10.899 10.899 8.7192
2 13.0788 8.7192 8.7192
2 15.2586 10.899 8.7192
2 0 13.0788 8.7192
2 2.1798 15.2586 8.7192
2 4.3596 13.0788 8.7192
2 6.5394 15.2586 8.7192
2 8.7192 13.0788 8.7192
2 10.899 15.2586 8.7192
2 13.0788 13.0788 8.7192
2 15.2586 15.2586 8.7192
510
Atoms. Timestep: 1
2 2.17899 0.0006572 -6.5385
2 17.4375 2.1788 -6.54031
1 1.09025 1.08999 -7.62875
1 3.27008 1.08966 -5.4499
1 1.0896 3.27007 -5.44886
1 3.26924 3.26947 -7.62991
2 6.53893 17.4377 -6.53867
2 4.35902 2.18062 -6.53993
1 5.45007 1.09046 -7.62955
1 7.62947 1.0899 -5.4499
1 5.45005 3.26946 -5.44886
1 7.6299 3.27025 -7.62989
2 10.8999 0.000765166 -6.53969
2 8.71841 2.18018 -6.53923
1 9.80876 1.08946 -7.62864
1 11.9886 1.08992 -5.44922
1 9.80924 3.26968 -5.44966
1 11.989 3.26945 -7.629
2 15.2578 4.60069e-05 -6.5403
2 13.0789 2.17912 -6.53906
1 14.1693 1.08966 -7.62913
1 16.3485 1.08935 -5.44997
1 14.1688 3.26915 -5.44996
1 16.3484 3.26932 -7.62964
2 2.17995 4.35873 -6.53893
2 0.000172875 6.53918 -6.53983
1 1.09042 5.44905 -7.62942
1 3.26988 5.44999 -5.44886
1 1.08992 7.62956 -5.44924
1 3.26932 7.62903 -7.62939
2 6.53999 4.35967 -6.53984
2 4.35933 6.53897 -6.53911
1 5.44902 5.44942 -7.629
1 7.6287 5.44885 -5.44958
1 5.44968 7.62922 -5.44927
1 7.62875 7.62955 -7.62989
2 10.8996 4.36006 -6.53854
2 8.71955 6.53905 -6.5401
1 9.80945 5.45012 -7.62952
1 11.9888 5.44895 -5.44999
1 9.80881 7.62967 -5.45012
1 11.9888 7.62966 -7.629
2 15.2583 4.35998 -6.54009
2 13.0778 6.54019 -6.53907
1 14.1692 5.44911 -7.62879
1 16.3485 5.44922 -5.44977
1 14.1691 7.62946 -5.44898
1 16.3485 7.62945 -7.62872
2 2.18061 8.71863 -6.53887
2 0.000355673 10.899 -6.53897
1 1.08985 9.80937 -7.62883
1 3.26905 9.8086 -5.44972
1 1.08959 11.9892 -5.45006
2 6.53856 8.71843 -6.53982
2 4.35892 10.8982 -6.53991
1 5.4498 9.80884 -7.62926
1 7.62908 9.80959 -5.44971
1 5.44921 11.9884 -5.44885
1 7.62987 11.9883 -7.62894
2 10.8998 8.71948 -6.53956
2 8.71925 10.8991 -6.53992
1 9.80919 9.80927 -7.6289
1 11.9887 9.80939 -5.45012
1 9.80958 11.9893 -5.44898
1 11.9888 11.9891 -7.62974
2 15.2587 8.71997 -6.53946
2 13.0793 10.8986 -6.5399
1 14.1693 9.80923 -7.62927
1 16.3488 9.8096 -5.44992
1 14.1688 11.9885 -5.44979
1 16.3488 11.9883 -7.62916
2 2.1806 13.0781 -6.53944
2 0.000399122 15.2577 -6.53845
1 1.09019 14.1691 -7.62969
1 3.26905 14.1687 -5.44897
1 1.08991 16.3489 -5.44973
1 3.26941 16.3479 -7.62948
2 6.53948 13.0791 -6.53891
2 4.35892 15.259 -6.53946
1 5.44907 14.1686 -7.62906
1 7.62877 14.1692 -5.44989
1 5.44897 16.3481 -5.44966
1 7.62976 16.3483 -7.62883
2 10.8981 13.0797 -6.53991
2 8.71981 15.2584 -6.53932
1 9.80971 14.1688 -7.62913
1 11.9888 14.1683 -5.45009
1 9.80929 16.3479 -5.45015
1 11.9886 16.3487 -7.62992
2 15.2584 13.0787 -6.53891
2 13.0787 15.2592 -6.53958
1 14.1686 14.1691 -7.6296
1 16.3481 14.1687 -5.44923
1 14.1681 16.3479 -5.44903
1 16.3485 16.3485 -7.62984
2 17.4383 0.000160651 -4.36053
2 2.17918 17.4375 -2.1793
2 0.000573454 2.18021 -2.17955
2 2.17998 2.1792 -4.35973
1 1.0894 1.08929 -3.27005
1 3.26996 1.09023 -1.08926
1 1.08979 3.26944 -1.08995
1 3.27005 3.27026 -3.26905
2 4.35867 0.00043329 -4.35913
2 6.53921 0.000777866 -2.18074
2 4.35928 2.17975 -2.17926
2 6.53867 2.18062 -4.36038
1 5.44974 1.09045 -3.27026
1 7.62908 1.0902 -1.08948
1 5.44939 3.26961 -1.0895
1 7.62938 3.27026 -3.26933
2 8.71996 17.4377 -4.35967
2 10.8993 17.4377 -2.18051
2 8.71929 2.18013 -2.17903
2 10.9 2.1794 -4.35997
1 9.80931 1.0893 -3.27015
1 11.9888 1.09005 -1.08974
1 9.80894 3.26983 -1.09008
1 11.9888 3.26957 -3.27028
2 13.0797 0.000113432 -4.36037
2 15.2588 17.4375 -2.17913
2 13.0785 2.18023 -2.17895
2 15.2594 2.18023 -4.36009
1 14.1682 1.09005 -3.26977
1 16.3482 1.08937 -1.09016
1 14.1693 3.27016 -1.08993
1 16.3481 3.26978 -3.26978
2 17.4378 4.35961 -4.35999
2 2.17995 4.35905 -2.1803
2 17.4375 6.5399 -2.17944
2 2.17938 6.53877 -4.35936
1 1.08959 5.45009 -3.27005
1 3.26953 5.44925 -1.08976
1 1.08926 7.62935 -1.08954
1 3.26926 7.62952 -3.27006
2 4.36046 4.35864 -4.35981
2 6.53916 4.35908 -2.18032
2 4.35932 6.53921 -2.17881
2 6.53957 6.54012 -4.35912
1 5.44975 5.44948 -3.26948
1 7.62898 5.45003 -1.08977
1 5.45011 7.62969 -1.08971
1 7.62949 7.62991 -3.26989
2 8.71927 4.35872 -4.3589
2 10.8989 4.35998 -2.18001
2 8.71993 6.53989 -2.17908
2 10.8989 6.53909 -4.36018
1 9.80888 5.44928 -3.27026
1 11.9886 5.44886 -1.09006
1 9.80972 7.62947 -1.09045
1 11.9889 7.62894 -3.26988
2 13.0781 4.35964 -4.36039
2 15.2585 4.35873 -2.17929
2 13.0786 6.54003 -2.1808
2 15.2578 6.53916 -4.35931
1 14.1681 5.44888 -3.26993
1 16.3484 5.44889 -1.09003
1 14.1682 7.62982 -1.08984
1 16.348 7.62889 -3.26908
2 17.438 8.72011 -4.35889
2 2.18073 8.71908 -2.17938
2 0.000218273 10.8983 -2.17884
2 2.18023 10.8999 -4.35957
1 1.0901 9.80864 -3.26992
1 3.27031 9.80896 -1.08992
1 1.08967 11.989 -1.09048
1 3.27003 11.9884 -3.26914
2 4.35946 8.71893 -4.35865
2 6.53882 8.71837 -2.18018
2 4.35949 10.8987 -2.18039
2 6.54003 10.8993 -4.35955
1 5.44927 9.80909 -3.26995
1 7.62978 9.80968 -1.09027
1 5.4497 11.9893 -1.09023
1 7.62903 11.9886 -3.2701
2 8.7182 8.71962 -4.35871
2 10.8994 8.7197 -2.17897
2 8.71837 10.8989 -2.18022
2 10.8998 10.8993 -4.36015
1 9.80857 9.80909 -3.27002
1 11.9894 9.80965 -1.08973
1 9.80941 11.9886 -1.09001
1 11.989 11.9893 -3.26914
2 13.0797 8.7193 -4.36028
2 15.2595 8.71855 -2.17905
2 13.0796 10.8985 -2.17941
2 15.2584 10.899 -4.36027
1 14.1692 9.8088 -3.26914
1 16.3482 9.8092 -1.08967
1 14.1682 11.9886 -1.08934
1 16.3491 11.9882 -3.26934
2 0.000494369 13.079 -4.35933
2 2.18053 13.0783 -2.17963
2 0.000981643 15.2583 -2.18059
2 2.18023 15.2593 -4.35875
1 1.09045 14.1681 -3.26949
1 3.27008 14.1687 -1.08959
1 1.0905 16.349 -1.08932
1 3.27019 16.3488 -3.2702
2 4.36007 13.0784 -4.35924
2 6.53924 13.0779 -2.17919
2 4.35931 15.2581 -2.18014
2 6.53963 15.259 -4.36007
1 5.44913 14.1689 -3.2699
1 7.62987 14.1693 -1.08984
1 5.44965 16.3491 -1.09008
1 7.62865 16.3486 -3.26939
2 8.72014 13.0789 -4.35873
2 10.8983 13.079 -2.17949
2 8.7182 15.2585 -2.17882
2 10.8984 15.2586 -4.3596
1 9.8095 14.1686 -3.26935
1 11.9894 14.1685 -1.08935
1 9.80895 16.3485 -1.08978
1 11.9885 16.3481 -3.26997
2 13.0789 13.078 -4.35987
2 15.2588 13.0779 -2.17897
2 13.0782 15.2591 -2.18029
2 15.2588 15.2586 -4.36033
1 14.1683 14.168 -3.2698
1 16.3485 14.1686 -1.09051
1 14.1686 16.3489 -1.09009
1 16.3479 16.3481 -3.2699
2 3.34691e-05 17.4381 -4.39991e-05
2 2.17912 0.000903821 2.17907
2 0.000142732 2.17992 2.17919
2 2.17947 2.17901 0.000722116
1 1.0895 1.09035 1.09052
1 3.26933 1.09023 3.26932
1 1.08942 3.26998 3.26924
1 3.26967 3.2694 1.08986
2 4.36001 0.00043402 0.000618761
2 6.5387 9.67176e-05 2.17886
2 4.35924 2.17915 2.18046
2 6.53842 2.18033 0.000167931
1 5.44975 1.09028 1.08952
1 7.6298 1.08966 3.27011
1 5.44922 3.26921 3.27003
1 7.62908 3.26908 1.08945
2 8.71957 0.000414793 0.000645792
2 10.8982 0.000643076 2.17963
2 8.7183 2.17909 2.18065
2 10.899 2.18015 -0.000588965
1 9.80893 1.09039 1.08937
1 11.9894 1.09021 3.2691
1 9.80922 3.27014 3.26926
1 11.9889 3.26903 1.08982
2 13.0796 0.000346289 0.000570503
2 15.2588 0.000600718 2.18071
2 13.0787 2.17903 2.17926
2 15.2585 2.17953 0.000528335
1 14.169 1.0903 1.08976
1 16.3479 1.08986 3.26909
1 14.1686 3.27013 3.2696
1 16.3489 3.26936 1.09034
2 0.000813623 4.359 -8.07989e-05
2 2.1807 4.3603 2.18009
2 17.4378 6.53903 2.18001
2 2.18036 6.53936 0.000292518
1 1.08978 5.44884 1.09002
1 3.26971 5.44976 3.26985
1 1.08968 7.62985 3.26931
1 3.26935 7.62902 1.08985
2 4.36056 4.35973 -0.000747816
2 6.53948 4.35902 2.17976
2 4.3602 6.53975 2.17948
2 6.53989 6.53983 -0.000983794
1 5.45004 5.44989 1.08967
1 7.62976 5.44935 3.26999
1 5.44933 7.62915 3.2693
1 7.62901 7.62949 1.09053
2 8.71999 4.3587 -0.000496046
2 10.8991 4.35928 2.1808
2 8.71928 6.53885 2.18062
2 10.8987 6.5392 -0.000838679
1 9.80902 5.44891 1.08961
1 11.9892 5.44963 3.26982
1 9.80845 7.62926 3.27017
1 11.9883 7.6292 1.08944
2 13.0796 4.35931 -0.000877611
2 15.2586 4.35962 2.1795
2 13.0788 6.53887 2.17904
2 15.2584 6.53996 0.000669335
1 14.1693 5.4493 1.08983
1 16.3485 5.44961 3.26958
1 14.1685 7.62898 3.26992
1 16.3491 7.62863 1.09028
2 17.4378 8.71934 -0.000563899
2 2.18071 8.71853 2.17922
2 17.4379 10.8986 2.1797
2 2.17963 10.8988 0.000527784
1 1.08939 9.80862 1.09039
1 3.26965 9.80935 3.26988
1 1.09035 11.9893 3.26981
1 3.26933 11.9891 1.09033
2 4.35928 8.7183 -0.000394674
2 6.53861 8.7194 2.18054
2 4.35894 10.9 2.17933
2 6.53856 10.8991 -8.1467e-05
1 5.44935 9.80844 1.08971
1 7.62965 9.80959 3.26949
1 5.44902 11.9895 3.26962
1 7.62966 11.9895 1.09009
2 8.71867 8.71935 -0.000393518
2 10.8995 8.71897 2.17957
2 8.71941 10.8987 2.17914
2 10.8992 10.8996 -0.000499715
1 9.80849 9.809 1.0897
1 11.9893 9.80907 3.26962
1 9.80856 11.9895 3.26986
1 11.9895 11.9883 1.09023
2 13.0788 8.71842 0.000572197
2 15.259 8.71865 2.17985
2 13.0781 10.8988 2.17925
2 15.2588 10.8997 0.000315374
1 14.1688 9.80892 1.09031
1 16.3485 9.80917 3.26939
1 14.1686 11.9885 3.26993
1 16.3488 11.9894 1.0895
2 17.4384 13.0778 -0.000544899
2 2.17889 13.0797 2.17948
2 17.4378 15.2586 2.17997
2 2.17942 15.2587 -0.000341122
1 1.09021 14.1692 1.08952
1 3.27007 14.1684 3.26946
1 1.08975 16.348 3.27028
1 3.2691 16.349 1.09021
2 4.35885 13.0779 -0.000387542
2 6.53933 13.0786 2.1794
2 4.35983 15.2577 2.1798
2 6.53839 15.259 -0.000237195
1 5.44955 14.1687 1.08979
1 7.62951 14.1693 3.26977
1 5.45001 16.349 3.26987
1 7.62972 16.3488 1.08975
2 8.71959 13.0797 -2.17267e-05
2 10.899 13.0793 2.18081
2 8.71902 15.2579 2.1798
2 10.898 15.2595 -0.000229291
1 9.80884 14.1685 1.09049
1 11.9896 14.1693 3.26943
1 9.80848 16.3481 3.26965
1 11.9887 16.3481 1.09044
2 13.0784 13.0788 -0.000161442
2 15.2594 13.0786 2.17991
2 13.0791 15.2586 2.18023
2 15.2595 15.259 0.000991624
1 14.1691 14.1684 1.0895
1 16.349 14.1681 3.27032
1 14.1692 16.349 3.26982
1 16.3491 16.3485 1.0901
2 17.4376 0.000743584 4.36013
2 2.18006 17.4382 6.53846
2 17.4374 2.17955 6.54028
2 2.18072 2.17893 4.35983
1 1.08955 1.09005 5.4499
1 3.27024 1.09053 7.62982
1 1.09037 3.27024 7.6299
1 3.26969 3.26905 5.44903
2 4.35952 17.4377 4.3598
2 6.53868 0.00075678 6.53956
2 4.35913 2.17891 6.53885
2 6.53853 2.18051 4.35992
1 5.44955 1.09032 5.44993
1 7.62992 1.08952 7.6288
1 5.44981 3.26908 7.62894
1 7.62867 3.27 5.44884
2 8.7187 17.4377 4.35951
2 10.8989 17.4382 6.54013
2 8.71984 2.18076 6.5403
2 10.8984 2.17977 4.3603
1 9.80889 1.08985 5.44898
1 11.9887 1.0904 7.6298
1 9.80863 3.27007 7.62868
1 11.9894 3.2694 5.44973
2 13.0785 17.4383 4.36041
2 15.2595 17.4381 6.53856
2 13.0791 2.18004 6.54004
2 15.2582 2.18014 4.36034
1 14.1685 1.08974 5.44887
1 16.349 1.09025 7.6297
1 14.1688 3.27018 7.62948
1 16.348 3.26987 5.4495
2 17.4382 4.35863 4.35977
2 2.18051 4.35909 6.53877
2 0.000384334 6.54039 6.53956
2 2.18014 6.53985 4.36016
1 1.08998 5.44976 5.44927
1 3.2695 5.4497 7.62933
1 1.09037 7.62973 7.62975
1 3.2702 7.62913 5.44997
2 4.35875 4.36025 4.35909
2 6.53942 4.3603 6.53942
2 4.36 6.54009 6.53997
2 6.53886 6.54015 4.35918
1 5.44916 5.44892 5.44932
1 7.62906 5.45011 7.62937
1 5.44935 7.62939 7.62949
1 7.62872 7.62988 5.45008
2 8.72005 4.36031 4.35944
2 10.8987 4.35919 6.5385
2 8.71925 6.53889 6.53972
2 10.8998 6.53966 4.35868
1 9.80958 5.44987 5.44962
1 11.9889 5.4492 7.62969
1 9.80925 7.62987 7.62898
1 11.9892 7.62919 5.44919
2 13.0789 4.3605 4.35918
2 15.2579 4.36041 6.53972
2 13.0785 6.54016 6.53863
2 15.2583 6.5385 4.3606
1 14.1691 5.45011 5.44888
1 16.3487 5.44949 7.62892
1 14.1684 7.62985 7.62894
1 16.348 7.62955 5.44937
2 17.4375 8.71832 4.35917
2 2.17922 8.71916 6.53993
2 17.4382 10.898 6.53993
2 2.17948 10.8999 4.36008
1 1.08961 9.80902 5.44972
1 3.26973 9.80915 7.62871
1 1.08978 11.9885 7.62983
1 3.26996 11.9894 5.44979
2 4.35991 8.71909 4.35917
2 6.53878 8.72009 6.53912
2 4.35949 10.8991 6.53931
2 6.5401 10.8981 4.35904
1 5.44993 9.80876 5.44985
1 7.6293 9.80938 7.62958
1 5.44989 11.989 7.62953
1 7.62917 11.9884 5.44976
2 8.71833 8.71878 4.35891
2 10.899 8.71833 6.53967
2 8.71903 10.8989 6.53891
2 10.9 10.8983 4.35958
1 9.80957 9.80962 5.45016
1 11.9893 9.80876 7.62874
1 9.80955 11.9891 7.62874
1 11.9885 11.9884 5.45011
2 13.078 8.71889 4.35933
2 15.2576 8.71827 6.54015
2 13.0793 10.8993 6.53848
2 15.2578 10.8991 4.36008
1 14.169 9.8093 5.44928
1 16.348 9.80902 7.62923
1 14.1693 11.989 7.62871
1 16.3483 11.9884 5.44893
2 0.00074522 13.0778 4.35864
2 2.18065 13.0779 6.53969
2 0.000441582 15.2583 6.53908
2 2.18052 15.2583 4.35934
1 1.08972 14.1686 5.44976
1 3.2702 14.1682 7.62884
1 1.08998 16.3482 7.62985
1 3.26952 16.3483 5.44934
2 4.35909 13.0794 4.35995
2 6.53976 13.078 6.53957
2 4.3595 15.2591 6.53942
2 6.53989 15.2589 4.35988
1 5.44997 14.1686 5.44985
1 7.62907 14.1682 7.62883
1 5.44923 16.349 7.62962
1 7.6291 16.3487 5.44893
2 8.71875 13.078 4.35908
2 10.8995 13.0782 6.53995
2 8.71922 15.2582 6.54005
2 10.8985 15.2576 4.35889
1 9.80949 14.1687 5.44949
1 11.9884 14.1693 7.62902
1 9.80924 16.3491 7.62993
1 11.9884 16.348 5.45006
2 13.0796 13.0797 4.35933
2 15.2579 13.0788 6.53897
2 13.0797 15.2593 6.53862
2 15.2582 15.2584 4.36003
1 14.1688 14.1681 5.44957
1 16.3479 14.1684 7.62932
1 14.169 16.3486 7.62884
1 16.3483 16.349 5.44942
2 17.4375 0.000249205 8.72004
2 2.17917 2.17997 8.71945
2 4.35973 0.000682779 8.71977
2 6.53842 2.18028 8.71953
2 8.71911 0.0001979 8.7202
2 10.8989 2.18063 8.71869
2 13.0794 0.000878015 8.71898
2 15.2576 2.17986 8.71892
2 0.000398405 4.35874 8.72016
2 2.18012 6.53962 8.71948
2 4.35942 4.35988 8.71844
2 6.53905 6.53929 8.71853
2 8.71924 4.35893 8.71826
2 10.9 6.53944 8.71899
2 13.0794 4.35962 8.71905
2 0.000372197 8.72019 8.71992
2 2.17967 10.8982 8.71853
2 4.35986 8.71982 8.7182
2 6.53867 10.8993 8.71848
2 8.7192 8.72003 8.71832
2 10.8983 10.8992 8.72009
2 13.0797 8.71976 8.71924
2 15.258 10.8997 8.7193
2 17.4375 13.0796 8.71974
2 2.18043 15.2584 8.71937
2 4.35914 13.0789 8.72006
2 6.53887 15.2583 8.71987
2 8.71966 13.0797 8.71992
2 10.899 15.2577 8.71818
2 13.0784 13.0792 8.71926
2 15.2588 15.2577 8.72014
508
Atoms. Timestep: 2
2 2.17818 0.00131421 -6.5376
2 17.4365 2.17779 -6.54122
1 1.09061 1.09009 -7.62819
1 3.27046 1.08942 -5.4503
1 1.08929 3.27044 -5.44822
1 3.26878 3.26924 -7.63051
2 6.53846 17.437 -6.53794
2 4.35843 2.18145 -6.54047
1 5.45064 1.09102 -7.62979
1 7.62965 1.0899 -5.45029
1 5.45059 3.26923 -5.44822
1 7.63049 3.2708 -7.63047
2 10.9007 0.00153013 -6.53999
2 8.71762 2.18055 -6.53907
1 9.80843 1.08901 -7.62797
1 11.9884 1.08995 -5.44894
1 9.80938 3.26966 -5.44982
1 11.9892 3.2692 -7.62869
2 15.2571 9.18418e-05 -6.5412
2 13.0791 2.17845 -6.53874
1 14.1699 1.08943 -7.62896
1 16.3484 1.0888 -5.45044
1 14.1689 3.2686 -5.45042
1 16.3483 3.26895 -7.62998
2 2.18011 4.35785 -6.53848
2 0.000345768 6.53895 -6.54027
1 1.09095 5.44861 -7.62954
1 3.27007 5.45049 -5.44822
1 1.08994 7.62983 -5.44899
1 3.26894 7.62876 -7.62948
2 6.54058 4.35974 -6.54029
2 4.35906 6.53855 -6.53884
1 5.44855 5.44933 -7.6287
1 7.62811 5.44819 -5.44965
1 5.44987 7.62915 -5.44904
1 7.62819 7.62979 -7.63048
2 10.9002 4.36052 -6.53768
2 8.71991 6.53871 -6.54081
1 11.9887 5.44839 -5.45049
1 9.80852 7.63003 -5.45073
1 11.9888 7.63003 -7.6287
2 15.258 4.36037 -6.54078
2 13.0769 6.54098 -6.53875
1 14.1697 5.44872 -7.62827
1 16.3484 5.44894 -5.45004
1 14.1695 7.62961 -5.44846
1 16.3486 7.62959 -7.62815
2 2.18143 8.71805 -6.53834
2 0.000711299 10.899 -6.53855
1 1.08979 9.80965 -7.62836
1 3.26839 9.80811 -5.44995
1 1.08928 11.9895 -5.45063
2 6.53773 8.71765 -6.54025
2 4.35825 10.8974 -6.5404
1 5.4501 9.80858 -7.62923
1 7.62886 9.81008 -5.44991
1 5.44892 11.9878 -5.44819
1 7.63043 11.9876 -7.62857
2 10.9005 8.71975 -6.53973
2 8.71929 10.8993 -6.54046
1 9.80929 9.80944 -7.62849
1 11.9884 9.80968 -5.45075
1 9.81006 11.9896 -5.44847
1 11.9887 11.9892 -7.63018
2 15.2587 8.72074 -6.53953
2 13.0798 10.8982 -6.54041
1 14.1698 9.80935 -7.62923
1 16.349 9.8101 -5.45033
1 14.1689 11.9881 -5.45008
1 16.3491 11.9877 -7.62901
2 2.18138 13.0775 -6.53946
2 0.000798134 15.2568 -6.53751
1 1.09049 14.1695 -7.63008
1 3.2684 14.1687 -5.44845
1 1.08992 16.3494 -5.44996
1 3.26913 16.3473 -7.62965
2 6.53957 13.0795 -6.53843
2 4.35823 15.2594 -6.53953
1 5.44863 14.1684 -7.62881
1 7.62823 14.1697 -5.45028
1 5.44844 16.3478 -5.44982
1 7.63022 16.3481 -7.62836
2 10.8971 13.0806 -6.54043
2 8.72042 15.2581 -6.53926
1 9.81032 14.1689 -7.62895
1 11.9886 14.1679 -5.45068
1 9.80948 16.3473 -5.4508
1 11.9882 16.349 -7.63054
2 15.2582 13.0785 -6.53843
2 13.0786 15.2599 -6.53976
1 14.1685 14.1695 -7.6299
1 16.3478 14.1687 -5.44897
1 14.1676 16.3473 -5.44857
1 16.3486 16.3486 -7.63038
2 17.4383 0.000321184 -4.36146
2 2.17856 17.4367 -2.1788
2 0.0011467 2.18063 -2.17929
2 2.18016 2.17859 -4.35986
1 1.0889 1.08867 -3.2704
1 3.27022 1.09055 -1.08861
1 1.08967 3.26917 -1.09001
1 3.27039 3.27082 -3.26839
2 4.35773 0.00086652 -4.35866
2 6.53902 0.00155568 -2.18167
2 4.35896 2.17971 -2.17872
2 6.53794 2.18143 -4.36117
1 5.44997 1.091 -3.27083
1 7.62886 1.0905 -1.08906
1 5.44928 3.26952 -1.08909
1 7.62947 3.27082 -3.26896
2 8.72071 17.437 -4.35973
2 10.8997 17.4371 -2.18123
2 8.71939 2.18045 -2.17826
2 10.9009 2.17899 -4.36035
1 9.80953 1.0887 -3.27059
1 11.9887 1.0902 -1.08957
1 9.80878 3.26996 -1.09025
1 11.9887 3.26943 -3.27085
2 13.0806 0.000226793 -4.36113
2 15.2589 17.4366 -2.17846
2 13.0782 2.18065 -2.17809
2 15.2601 2.18066 -4.36059
1 14.1677 1.09019 -3.26984
1 16.348 1.08885 -1.09042
1 14.17 3.27062 -1.08996
1 16.3476 3.26986 -3.26986
2 17.4372 4.35962 -4.36038
2 2.18011 4.3585 -2.18079
2 17.4365 6.54039 -2.17909
2 2.17895 6.53815 -4.35912
1 1.08927 5.45068 -3.2704
1 3.26937 5.449 -1.08962
1 1.08862 7.62941 -1.08917
1 3.26883 7.62975 -3.27042
2 4.36132 4.35769 -4.36002
2 6.53891 4.35856 -2.18083
2 4.35903 6.53903 -2.17782
2 6.53974 6.54083 -4.35863
1 5.45001 5.44945 -3.26926
1 7.62867 5.45056 -1.08964
1 5.45072 7.63007 -1.08951
1 7.62969 7.63052 -3.27008
2 8.71934 4.35783 -4.35821
2 10.8988 4.36036 -2.18022
2 8.72066 6.54038 -2.17836
2 10.8988 6.53878 -4.36075
1 9.80866 5.44906 -3.27082
1 11.9883 5.44822 -1.09021
1 9.81033 7.62964 -1.09099
1 11.9889 7.62858 -3.27005
2 13.0774 4.35969 -4.36118
2 15.2583 4.35786 -2.17878
2 13.0785 6.54066 -2.1818
2 15.257 6.53893 -4.35903
1 14.1676 5.44827 -3.27015
1 16.3483 5.44828 -1.09015
1 14.1676 7.63034 -1.08978
1 16.3475 7.62848 -3.26845
2 17.4376 8.72102 -4.35819
2 2.18166 8.71896 -2.17897
2 0.000436542 10.8976 -2.17787
2 2.18067 10.9008 -4.35955
1 1.0903 9.80818 -3.27015
1 3.27092 9.80883 -1.08994
1 1.08944 11.9892 -1.09107
1 3.27035 11.988 -3.26858