176
Atoms. Timestep: 9998400
4 0 0 -8.7192
4 2.1798 0 -6.5394
4 0 2.1798 -6.5394
4 2.1798 2.1798 -8.7192
3 1.0899 1.0899 -7.6293
3 3.2697 1.0899 -5.4495
3 1.0899 3.2697 -5.4495
3 3.2697 3.2697 -7.6293
4 4.3596 0 -8.7192
4 6.5394 0 -6.5394
4 4.3596 2.1798 -6.5394
4 6.5394 2.1798 -8.7192
3 5.4495 1.0899 -7.6293
3 7.6293 1.0899 -5.4495
3 5.4495 3.2697 -5.4495
3 7.6293 3.2697 -7.6293
4 8.7192 0 -8.7192
4 10.899 0 -6.5394
4 8.7192 2.1798 -6.5394
4 10.899 2.1798 -8.7192
3 9.8091 1.0899 -7.6293
3 11.9889 1.0899 -5.4495
3 9.8091 3.2697 -5.4495
3 11.9889 3.2697 -7.6293
4 0 4.3596 -8.7192
4 2.1798 4.3596 -6.5394
4 0 6.5394 -6.5394
4 2.1798 6.5394 -8.7192
3 1.0899 5.4495 -7.6293
3 3.2697 5.4495 -5.4495
3 1.0899 7.6293 -5.4495
3 3.2697 7.6293 -7.6293
4 4.3596 4.3596 -8.7192
4 6.5394 4.3596 -6.5394
4 4.3596 6.5394 -6.5394
4 6.5394 6.5394 -8.7192
3 5.4495 5.4495 -7.6293
3 7.6293 5.4495 -5.4495
3 5.4495 7.6293 -5.4495
3 7.6293 7.6293 -7.6293
4 8.7192 4.3596 -8.7192
4 10.899 4.3596 -6.5394
4 8.7192 6.5394 -6.5394
4 10.899 6.5394 -8.7192
3 9.8091 5.4495 -7.6293
3 11.9889 5.4495 -5.4495
3 9.8091 7.6293 -5.4495
3 11.9889 7.6293 -7.6293
4 0 8.7192 -8.7192
4 2.1798 8.7192 -6.5394
4 0 10.899 -6.5394
4 2.1798 10.899 -8.7192
3 1.0899 9.8091 -7.6293
3 3.2697 9.8091 -5.4495
3 1.0899 11.9889 -5.4495
3 3.2697 11.9889 -7.6293
4 4.3596 8.7192 -8.7192
4 6.5394 8.7192 -6.5394
4 4.3596 10.899 -6.5394
4 6.5394 10.899 -8.7192
3 5.4495 9.8091 -7.6293
3 7.6293 9.8091 -5.4495
3 5.4495 11.9889 -5.4495
3 7.6293 11.9889 -7.6293
4 8.7192 8.7192 -8.7192
4 10.899 8.7192 -6.5394
4 8.7192 10.899 -6.5394
4 10.899 10.899 -8.7192
3 9.8091 9.8091 -7.6293
3 11.9889 9.8091 -5.4495
3 9.8091 11.9889 -5.4495
3 11.9889 11.9889 -7.6293
2 2.09238 13.0552 -2.12943
2 0.0106968 2.11707 -2.15221
1 1.11175 1.06669 -3.30496
1 3.16861 1.04973 -1.12446
1 1.03442 3.18329 -1.07408
1 3.17705 3.2653 -3.22689
4 2.1798 2.1798 -4.3596
4 0 0 -4.3596
2 6.61579 0.0862379 -2.2727
2 4.29234 2.16753 -2.22695
1 5.47457 1.09748 -3.28294
1 7.60824 1.13901 -1.01032
1 5.41049 3.24835 -1.17151
1 7.63964 3.27394 -3.2949
4 6.5394 2.1798 -4.3596
4 4.3596 0 -4.3596
2 10.8458 0.0557685 -2.24522
2 8.69968 2.25656 -2.0578
1 9.75636 1.17349 -3.26255
1 11.8794 1.1716 -1.11403
1 9.7807 3.35632 -0.926351
1 11.9741 3.30365 -3.24331
4 10.899 2.1798 -4.3596
4 8.7192 0 -4.3596
2 2.15023 4.35079 -2.18488
2 13.0361 6.65035 -2.19218
1 1.11057 5.42187 -3.21462
1 3.2586 5.44197 -1.02072
1 1.06575 7.6623 -1.06774
1 3.23624 7.69133 -3.21651
4 2.1798 6.5394 -4.3596
4 0 4.3596 -4.3596
4 6.5394 6.5394 -4.3596
2 6.47531 4.38168 -2.15679
2 4.26364 6.60926 -2.1357
4 4.3596 4.3596 -4.3596
1 5.41333 5.44376 -3.30628
1 7.55774 5.45095 -1.0701
1 5.37059 7.67303 -1.0901
1 7.56586 7.69781 -3.32839
4 10.899 6.5394 -4.3596
4 8.7192 4.3596 -4.3596
2 10.8444 4.36653 -2.17358
2 8.69499 6.61649 -2.23553
1 9.77547 5.49576 -3.31755
1 11.9058 5.5195 -1.138
1 9.80137 7.78381 -1.09063
1 11.9527 7.64188 -3.25004
4 2.1798 10.899 -4.3596
4 0 8.7192 -4.3596
2 2.11294 8.72925 -2.20973
2 13.0557 10.8949 -2.28104
1 1.0293 9.79845 -3.23995
1 3.15869 9.87887 -1.12826
1 0.990242 11.9861 -1.09584
1 3.23488 12.0187 -3.29173
4 6.5394 10.899 -4.3596
4 4.3596 8.7192 -4.3596
2 6.51347 8.68244 -2.23929
2 4.27988 11.0148 -2.23823
1 5.4206 9.83384 -3.2762
1 7.63705 9.93985 -1.17048
1 5.42868 12.0432 -1.21918
1 7.71339 12.0119 -3.31722
4 10.899 10.899 -4.3596
4 8.7192 8.7192 -4.3596
2 10.868 8.8335 -2.12041
2 8.78016 10.9637 -2.23972
1 9.8223 9.84554 -3.30926
1 11.9036 9.93093 -1.15982
1 9.78531 12.0959 -1.10819
1 12.0068 12.0452 -3.32862
2 12.6867 12.8251 -0.215354
2 2.33414 2.34841 -0.286228
2 4.43027 0.138675 -0.217755
2 6.14779 1.89624 -0.192537
2 8.94691 0.364712 -0.0863776
2 10.6647 2.14598 -0.032898
2 0.0764649 4.51635 -0.24578
2 1.87532 6.25278 -0.181614
2 4.16164 4.09442 -0.200937
2 6.81424 6.94285 -0.285734
2 8.94057 4.753 -0.105127
2 10.6046 6.50493 -0.202709
2 0.208141 9.11676 -0.348771
2 1.90216 10.7596 -0.110716
2 4.60817 9.11095 -0.403294
2 6.32279 10.8453 -0.314201
2 8.42027 8.5872 -0.325225
2 11.0799 11.2062 -0.300678
2 3.31677 3.12092 0.568967
2 5.52331 9.99064 0.374509
2 1.02517 5.26791 0.541224
2 9.8689 1.23231 0.783958
2 9.67851 5.73872 0.749008
2 7.61492 7.89037 0.658347
1 8.59225 6.86095 1.81646
2 11.7659 11.891 0.795066
2 10.9054 0.137498 1.68468
2 0.997433 9.90818 0.649029
2 12.8615 10.6763 1.62932
2 5.17104 1.05642 0.573038
1 4.12135 2.14754 1.82902
2 6.26172 8.76354 1.31124
176
Atoms. Timestep: 9998500
4 0 0 -8.7192
4 2.1798 0 -6.5394
4 0 2.1798 -6.5394
4 2.1798 2.1798 -8.7192
3 1.0899 1.0899 -7.6293
3 3.2697 1.0899 -5.4495
3 1.0899 3.2697 -5.4495
3 3.2697 3.2697 -7.6293
4 4.3596 0 -8.7192
4 6.5394 0 -6.5394
4 4.3596 2.1798 -6.5394
4 6.5394 2.1798 -8.7192
3 5.4495 1.0899 -7.6293
3 7.6293 1.0899 -5.4495
3 5.4495 3.2697 -5.4495
3 7.6293 3.2697 -7.6293
4 8.7192 0 -8.7192
4 10.899 0 -6.5394
4 8.7192 2.1798 -6.5394
4 10.899 2.1798 -8.7192
3 9.8091 1.0899 -7.6293
3 11.9889 1.0899 -5.4495
3 9.8091 3.2697 -5.4495
3 11.9889 3.2697 -7.6293
4 0 4.3596 -8.7192
4 2.1798 4.3596 -6.5394
4 0 6.5394 -6.5394
4 2.1798 6.5394 -8.7192
3 1.0899 5.4495 -7.6293
3 3.2697 5.4495 -5.4495
3 1.0899 7.6293 -5.4495
3 3.2697 7.6293 -7.6293
4 4.3596 4.3596 -8.7192
4 6.5394 4.3596 -6.5394
4 4.3596 6.5394 -6.5394
4 6.5394 6.5394 -8.7192
3 5.4495 5.4495 -7.6293
3 7.6293 5.4495 -5.4495
3 5.4495 7.6293 -5.4495
3 7.6293 7.6293 -7.6293
4 8.7192 4.3596 -8.7192
4 10.899 4.3596 -6.5394
4 8.7192 6.5394 -6.5394
4 10.899 6.5394 -8.7192
3 9.8091 5.4495 -7.6293
3 11.9889 5.4495 -5.4495
3 9.8091 7.6293 -5.4495
3 11.9889 7.6293 -7.6293
4 0 8.7192 -8.7192
4 2.1798 8.7192 -6.5394
4 0 10.899 -6.5394
4 2.1798 10.899 -8.7192
3 1.0899 9.8091 -7.6293
3 3.2697 9.8091 -5.4495
3 1.0899 11.9889 -5.4495
3 3.2697 11.9889 -7.6293
4 4.3596 8.7192 -8.7192
4 6.5394 8.7192 -6.5394
4 4.3596 10.899 -6.5394
4 6.5394 10.899 -8.7192
3 5.4495 9.8091 -7.6293
3 7.6293 9.8091 -5.4495
3 5.4495 11.9889 -5.4495
3 7.6293 11.9889 -7.6293
4 8.7192 8.7192 -8.7192
4 10.899 8.7192 -6.5394
4 8.7192 10.899 -6.5394
4 10.899 10.899 -8.7192
3 9.8091 9.8091 -7.6293
3 11.9889 9.8091 -5.4495
3 9.8091 11.9889 -5.4495
3 11.9889 11.9889 -7.6293
2 2.05993 13.0188 -2.25731
2 13.0254 2.18602 -2.2216
1 1.0342 1.06706 -3.27712
1 3.15001 1.03092 -1.13564
1 0.995825 3.21968 -1.06547
1 3.19795 3.25259 -3.26959
4 2.1798 2.1798 -4.3596
4 0 0 -4.3596
2 6.61656 0.0647357 -2.2617
2 4.29488 2.1574 -2.17041
1 5.47778 1.16687 -3.34373
1 7.61549 1.14855 -1.03865
1 5.4689 3.23175 -1.16439
1 7.59086 3.31615 -3.26575
4 6.5394 2.1798 -4.3596
4 4.3596 0 -4.3596
2 10.8305 0.0406131 -2.19309
2 8.65957 2.22418 -2.11902
1 9.76146 1.15432 -3.29567
1 11.9213 1.13866 -1.05467
1 9.77871 3.40357 -0.985474
1 11.9793 3.25514 -3.23583
4 10.899 2.1798 -4.3596
4 8.7192 0 -4.3596
2 2.12128 4.33017 -2.13877
2 13.0485 6.59704 -2.20587
1 1.05403 5.45057 -3.2329
1 3.25704 5.49648 -1.04314
1 1.02829 7.63042 -1.06723
1 3.24818 7.66599 -3.22874
4 2.1798 6.5394 -4.3596
4 0 4.3596 -4.3596
4 6.5394 6.5394 -4.3596
2 6.53205 4.28734 -2.13788
2 4.24761 6.66462 -2.0717
4 4.3596 4.3596 -4.3596
1 5.37763 5.45876 -3.27216
1 7.56515 5.50795 -1.02748
1 5.36805 7.68775 -1.10339
1 7.57303 7.6084 -3.31961
4 10.899 6.5394 -4.3596
4 8.7192 4.3596 -4.3596
2 10.7509 4.41474 -2.20907
2 8.66298 6.66488 -2.26818
1 9.72456 5.50996 -3.31596
1 11.8722 5.55106 -1.1181
1 9.82462 7.7828 -1.09493
1 11.9447 7.63102 -3.31938
4 2.1798 10.899 -4.3596
4 0 8.7192 -4.3596
2 2.14744 8.75207 -2.14546
2 12.9886 10.9419 -2.16831
1 1.02312 9.76579 -3.25369
1 3.14007 9.89938 -1.11843
1 0.999815 12.027 -1.094
1 3.21283 12.0364 -3.27711
4 6.5394 10.899 -4.3596
4 4.3596 8.7192 -4.3596
2 6.50885 8.75556 -2.23047
2 4.2892 10.9215 -2.16933
1 5.36656 9.86398 -3.2701
1 7.61175 9.94549 -1.14267
1 5.43747 12.068 -1.22248
1 7.66599 11.989 -3.33532
4 10.899 10.899 -4.3596
4 8.7192 8.7192 -4.3596
2 10.9269 8.77552 -2.20183
2 8.72025 10.9297 -2.21694
1 9.78691 9.80764 -3.30316
1 11.9496 9.90705 -1.18322
1 9.8104 12.0778 -1.04836
1 11.9674 12.0572 -3.27815
2 12.6938 12.7776 -0.248498
2 2.43701 2.3883 -0.206446
2 4.42138 0.115327 -0.282972
2 6.15185 1.88828 -0.0831843
2 8.95893 0.377437 -0.121649
2 10.6996 2.11994 0.0139151
2 0.127627 4.54846 -0.266787
2 1.88363 6.23843 -0.188314
2 4.12441 4.05589 -0.204667
2 6.79612 6.98394 -0.233205
2 8.86272 4.68759 -0.0187341
2 10.6125 6.41578 -0.0921181
2 0.260258 9.09672 -0.29258
2 1.91739 10.7905 -0.0963193
2 4.6108 9.19163 -0.386501
2 6.38013 10.9266 -0.323189
2 8.39359 8.62627 -0.340737
2 11.024 11.1521 -0.226156
2 3.31677 3.12092 0.568967
2 5.52331 9.99064 0.374509
2 1.02517 5.26791 0.541224
2 9.8689 1.23231 0.783958
2 9.67851 5.73872 0.749008
2 7.61492 7.89037 0.658347
1 8.59225 6.86095 1.81646
2 11.7659 11.891 0.795066
2 10.9054 0.137498 1.68468
2 0.997433 9.90818 0.649029
2 12.8615 10.6763 1.62932
2 5.17104 1.05642 0.573038
1 4.12135 2.14754 1.82902
2 6.26172 8.76354 1.31124
176
Atoms. Timestep: 9998600
4 0 0 -8.7192
4 2.1798 0 -6.5394
4 0 2.1798 -6.5394
4 2.1798 2.1798 -8.7192
3 1.0899 1.0899 -7.6293
3 3.2697 1.0899 -5.4495
3 1.0899 3.2697 -5.4495
3 3.2697 3.2697 -7.6293
4 4.3596 0 -8.7192
4 6.5394 0 -6.5394
4 4.3596 2.1798 -6.5394
4 6.5394 2.1798 -8.7192
3 5.4495 1.0899 -7.6293
3 7.6293 1.0899 -5.4495
3 5.4495 3.2697 -5.4495
3 7.6293 3.2697 -7.6293
4 8.7192 0 -8.7192
4 10.899 0 -6.5394
4 8.7192 2.1798 -6.5394
4 10.899 2.1798 -8.7192
3 9.8091 1.0899 -7.6293
3 11.9889 1.0899 -5.4495
3 9.8091 3.2697 -5.4495
3 11.9889 3.2697 -7.6293
4 0 4.3596 -8.7192
4 2.1798 4.3596 -6.5394
4 0 6.5394 -6.5394
4 2.1798 6.5394 -8.7192
3 1.0899 5.4495 -7.6293
3 3.2697 5.4495 -5.4495
3 1.0899 7.6293 -5.4495
3 3.2697 7.6293 -7.6293
4 4.3596 4.3596 -8.7192
4 6.5394 4.3596 -6.5394
4 4.3596 6.5394 -6.5394
4 6.5394 6.5394 -8.7192
3 5.4495 5.4495 -7.6293
3 7.6293 5.4495 -5.4495
3 5.4495 7.6293 -5.4495
3 7.6293 7.6293 -7.6293
4 8.7192 4.3596 -8.7192
4 10.899 4.3596 -6.5394
4 8.7192 6.5394 -6.5394
4 10.899 6.5394 -8.7192
3 9.8091 5.4495 -7.6293
3 11.9889 5.4495 -5.4495
3 9.8091 7.6293 -5.4495
3 11.9889 7.6293 -7.6293
4 0 8.7192 -8.7192
4 2.1798 8.7192 -6.5394
4 0 10.899 -6.5394
4 2.1798 10.899 -8.7192
3 1.0899 9.8091 -7.6293
3 3.2697 9.8091 -5.4495
3 1.0899 11.9889 -5.4495
3 3.2697 11.9889 -7.6293
4 4.3596 8.7192 -8.7192
4 6.5394 8.7192 -6.5394
4 4.3596 10.899 -6.5394
4 6.5394 10.899 -8.7192
3 5.4495 9.8091 -7.6293
3 7.6293 9.8091 -5.4495
3 5.4495 11.9889 -5.4495
3 7.6293 11.9889 -7.6293
4 8.7192 8.7192 -8.7192
4 10.899 8.7192 -6.5394
4 8.7192 10.899 -6.5394
4 10.899 10.899 -8.7192
3 9.8091 9.8091 -7.6293
3 11.9889 9.8091 -5.4495
3 9.8091 11.9889 -5.4495
3 11.9889 11.9889 -7.6293
2 2.07863 0.0113814 -2.26108
2 12.9757 2.19223 -2.16511
1 0.984375 1.13135 -3.26583
1 3.1494 1.06519 -1.13359
1 0.983098 3.26933 -1.1065
1 3.26679 3.26118 -3.30571
4 2.1798 2.1798 -4.3596
4 0 0 -4.3596
2 6.56075 0.00369296 -2.22745
2 4.32559 2.13776 -2.24503
1 5.43652 1.12561 -3.32356
1 7.60526 1.12573 -1.04626
1 5.45511 3.25424 -1.05578
1 7.58911 3.33151 -3.25748
4 6.5394 2.1798 -4.3596
4 4.3596 0 -4.3596
2 10.8632 0.0863544 -2.17755
2 8.66459 2.2852 -2.23252
1 9.77036 1.11033 -3.2931
1 11.938 1.10749 -1.00155
1 9.74121 3.40991 -1.04755
1 11.9408 3.24879 -3.26573
4 10.899 2.1798 -4.3596
4 8.7192 0 -4.3596
2 2.1185 4.3483 -2.14049
2 12.9829 6.5148 -2.20067
1 1.00362 5.49203 -3.27611
1 3.2658 5.51411 -1.06841
1 1.0215 7.60461 -1.06877
1 3.23308 7.64182 -3.2736
4 2.1798 6.5394 -4.3596
4 0 4.3596 -4.3596
4 6.5394 6.5394 -4.3596
2 6.55932 4.39962 -2.15782
2 4.35754 6.53618 -2.12632
4 4.3596 4.3596 -4.3596
1 5.37686 5.49108 -3.18843
1 7.5845 5.56629 -1.00575
1 5.36851 7.73765 -1.12187
1 7.57748 7.60971 -3.29063
4 10.899 6.5394 -4.3596
4 8.7192 4.3596 -4.3596
2 10.8365 4.44989 -2.21944
2 8.68436 6.57949 -2.16886
1 9.73578 5.49073 -3.27481
1 11.8748 5.51548 -1.08462
1 9.80615 7.71692 -1.10081
1 11.9694 7.6535 -3.36846
4 2.1798 10.899 -4.3596
4 0 8.7192 -4.3596
2 2.16105 8.70596 -2.12737
2 13.0355 11.016 -2.21739
1 1.06559 9.79231 -3.29238
1 3.15018 9.93275 -1.08983
1 1.02091 12.0374 -1.08696
1 3.21367 11.9504 -3.3407
4 6.5394 10.899 -4.3596
4 4.3596 8.7192 -4.3596
2 6.48275 8.86908 -2.2359
2 4.27365 10.9258 -2.21218
1 5.35223 9.87107 -3.27609
1 7.60479 9.94304 -1.17808
1 5.43572 12.1083 -1.25245
1 7.58662 12.0125 -3.33639
4 10.899 10.899 -4.3596
4 8.7192 8.7192 -4.3596
2 10.9229 8.70574 -2.32692
2 8.70307 10.9639 -2.16292
1 9.74994 9.80524 -3.31134
1 11.9764 9.83433 -1.12837
1 9.74785 12.0403 -1.04779
1 11.8755 12.0076 -3.22446
2 12.6245 12.7283 -0.15135
2 2.32272 2.36802 -0.270005
2 4.50325 0.19421 -0.310151
2 6.27895 1.90163 -0.17974
2 9.02526 0.390999 -0.143258
2 10.7229 2.13831 -0.151023
2 0.0900919 4.52411 -0.204414
2 1.86198 6.23237 -0.0843424
2 4.08813 4.06413 -0.240748
2 6.72225 6.95214 -0.22256
2 8.85972 4.70156 0.030384
2 10.6645 6.47145 -0.121964
2 0.243035 8.94286 -0.248152
2 1.92373 10.7874 -0.134793
2 4.57457 9.21735 -0.419211
2 6.37186 10.8999 -0.290964
2 8.47102 8.67064 -0.236001
2 10.9312 11.0514 -0.128758
2 3.31677 3.12092 0.568967
2 5.52331 9.99064 0.374509
2 1.02517 5.26791 0.541224
2 9.8689 1.23231 0.783958
2 9.67851 5.73872 0.749008
2 7.61492 7.89037 0.658347
1 8.59225 6.86095 1.81646
2 11.7659 11.891 0.795066
2 10.9054 0.137498 1.68468
2 0.997433 9.90818 0.649029
2 12.8615 10.6763 1.62932
2 5.17104 1.05642 0.573038
1 4.12135 2.14754 1.82902
2 6.26172 8.76354 1.31124
176
Atoms. Timestep: 9998700
4 0 0 -8.7192
4 2.1798 0 -6.5394
4 0 2.1798 -6.5394
4 2.1798 2.1798 -8.7192
3 1.0899 1.0899 -7.6293
3 3.2697 1.0899 -5.4495
3 1.0899 3.2697 -5.4495
3 3.2697 3.2697 -7.6293
4 4.3596 0 -8.7192
4 6.5394 0 -6.5394
4 4.3596 2.1798 -6.5394
4 6.5394 2.1798 -8.7192
3 5.4495 1.0899 -7.6293
3 7.6293 1.0899 -5.4495
3 5.4495 3.2697 -5.4495
3 7.6293 3.2697 -7.6293
4 8.7192 0 -8.7192
4 10.899 0 -6.5394
4 8.7192 2.1798 -6.5394
4 10.899 2.1798 -8.7192
3 9.8091 1.0899 -7.6293
3 11.9889 1.0899 -5.4495
3 9.8091 3.2697 -5.4495
3 11.9889 3.2697 -7.6293
4 0 4.3596 -8.7192
4 2.1798 4.3596 -6.5394
4 0 6.5394 -6.5394
4 2.1798 6.5394 -8.7192
3 1.0899 5.4495 -7.6293
3 3.2697 5.4495 -5.4495
3 1.0899 7.6293 -5.4495
3 3.2697 7.6293 -7.6293
4 4.3596 4.3596 -8.7192
4 6.5394 4.3596 -6.5394
4 4.3596 6.5394 -6.5394
4 6.5394 6.5394 -8.7192
3 5.4495 5.4495 -7.6293
3 7.6293 5.4495 -5.4495
3 5.4495 7.6293 -5.4495
3 7.6293 7.6293 -7.6293
4 8.7192 4.3596 -8.7192
4 10.899 4.3596 -6.5394
4 8.7192 6.5394 -6.5394
4 10.899 6.5394 -8.7192
3 9.8091 5.4495 -7.6293
3 11.9889 5.4495 -5.4495
3 9.8091 7.6293 -5.4495
3 11.9889 7.6293 -7.6293
4 0 8.7192 -8.7192
4 2.1798 8.7192 -6.5394
4 0 10.899 -6.5394
4 2.1798 10.899 -8.7192
3 1.0899 9.8091 -7.6293
3 3.2697 9.8091 -5.4495
3 1.0899 11.9889 -5.4495
3 3.2697 11.9889 -7.6293
4 4.3596 8.7192 -8.7192
4 6.5394 8.7192 -6.5394
4 4.3596 10.899 -6.5394
4 6.5394 10.899 -8.7192
3 5.4495 9.8091 -7.6293
3 7.6293 9.8091 -5.4495
3 5.4495 11.9889 -5.4495
3 7.6293 11.9889 -7.6293
4 8.7192 8.7192 -8.7192
4 10.899 8.7192 -6.5394
4 8.7192 10.899 -6.5394
4 10.899 10.899 -8.7192
3 9.8091 9.8091 -7.6293
3 11.9889 9.8091 -5.4495
3 9.8091 11.9889 -5.4495
3 11.9889 11.9889 -7.6293
2 2.11543 0.0564723 -2.18055
2 12.9768 2.1585 -2.07467
1 0.981919 1.17617 -3.2729
1 3.17178 1.08084 -1.21545
1 0.963457 3.28915 -1.16683
1 3.30946 3.28867 -3.30814
4 2.1798 2.1798 -4.3596
4 0 0 -4.3596
2 6.5233 0.0478499 -2.25697
2 4.36267 2.18438 -2.27439
1 5.4068 1.11749 -3.34087
1 7.62348 1.09559 -1.08101
1 5.46156 3.31849 -1.01799
1 7.59592 3.33407 -3.28389
4 6.5394 2.1798 -4.3596
4 4.3596 0 -4.3596
2 10.8394 0.0560799 -2.14741
2 8.68875 2.29132 -2.22721
1 9.78223 1.09678 -3.2682
1 11.9406 1.12277 -1.00317
1 9.71462 3.384 -1.10737
1 11.8978 3.29485 -3.29426
4 10.899 2.1798 -4.3596
4 8.7192 0 -4.3596
2 2.14592 4.41848 -2.26571
2 12.9331 6.5663 -2.19591
1 1.01046 5.49225 -3.30579
1 3.25106 5.47845 -1.04771
1 1.05469 7.55443 -1.06662
1 3.2449 7.60915 -3.2925
4 2.1798 6.5394 -4.3596
4 0 4.3596 -4.3596
4 6.5394 6.5394 -4.3596
2 6.50599 4.53086 -2.08603
2 4.36049 6.53494 -2.19895
4 4.3596 4.3596 -4.3596
1 5.44966 5.48948 -3.18085
1 7.58309 5.57223 -1.00772
1 5.35731 7.76659 -1.16819
1 7.58487 7.68744 -3.24638
4 10.899 6.5394 -4.3596
4 8.7192 4.3596 -4.3596
2 10.9351 4.38553 -2.18434
2 8.71008 6.5167 -2.10182
1 9.79523 5.4623 -3.24105
1 11.9144 5.45678 -1.0557
1 9.79081 7.693 -1.14633
1 12.0038 7.64318 -3.34764
4 2.1798 10.899 -4.3596
4 0 8.7192 -4.3596
2 2.14346 8.66382 -2.19187
2 0.010727 10.9278 -2.27023
1 1.10656 9.84808 -3.30316
1 3.17796 9.9362 -1.10272
1 0.99574 12.0302 -1.06325
1 3.22201 11.9733 -3.33216
4 6.5394 10.899 -4.3596
4 4.3596 8.7192 -4.3596
2 6.48945 8.83297 -2.25279
2 4.26136 11.0207 -2.28324
1 5.40296 9.84595 -3.31166
1 7.60071 9.90288 -1.20232
1 5.40615 12.0219 -1.18112
1 7.56825 12.0583 -3.3181
4 10.899 10.899 -4.3596
4 8.7192 8.7192 -4.3596
2 10.8565 8.71894 -2.26921
2 8.69313 11.0166 -2.21894
1 9.75227 9.83404 -3.29325
1 11.9511 9.74262 -1.09831
1 9.71496 12.0319 -1.07228
1 11.8493 11.9866 -3.22166
2 12.6584 12.7521 -0.121008
2 2.24198 2.395 -0.266776
2 4.44456 0.255498 -0.347885
2 6.2256 1.89448 -0.175282
2 8.97198 0.389475 -0.165767
2 10.586 2.08876 -0.17662
2 0.0303481 4.47958 -0.164764
2 1.91114 6.28146 -0.107616
2 4.09336 4.09139 -0.209189
2 6.75103 6.96514 -0.208217
2 8.91502 4.74841 -0.0669747
2 10.6487 6.46961 -0.163014
2 0.164095 8.91491 -0.161756
2 1.85046 10.7389 -0.157734
2 4.61609 9.1776 -0.393827
2 6.32821 10.8686 -0.338324
2 8.54324 8.69031 -0.194682
2 10.9234 10.9932 -0.0886754
2 3.31677 3.12092 0.568967
2 5.52331 9.99064 0.374509
2 1.02517 5.26791 0.541224
2 9.8689 1.23231 0.783958
2 9.67851 5.73872 0.749008
2 7.61492 7.89037 0.658347
1 8.59225 6.86095 1.81646
2 11.7659 11.891 0.795066
2 10.9054 0.137498 1.68468
2 0.997433 9.90818 0.649029
2 12.8615 10.6763 1.62932
2 5.17104 1.05642 0.573038
1 4.12135 2.14754 1.82902
2 6.26172 8.76354 1.31124
176
Atoms. Timestep: 9998800
4 0 0 -8.7192
4 2.1798 0 -6.5394
4 0 2.1798 -6.5394
4 2.1798 2.1798 -8.7192
3 1.0899 1.0899 -7.6293
3 3.2697 1.0899 -5.4495
3 1.0899 3.2697 -5.4495
3 3.2697 3.2697 -7.6293
4 4.3596 0 -8.7192
4 6.5394 0 -6.5394
4 4.3596 2.1798 -6.5394
4 6.5394 2.1798 -8.7192
3 5.4495 1.0899 -7.6293
3 7.6293 1.0899 -5.4495
3 5.4495 3.2697 -5.4495
3 7.6293 3.2697 -7.6293
4 8.7192 0 -8.7192
4 10.899 0 -6.5394
4 8.7192 2.1798 -6.5394
4 10.899 2.1798 -8.7192
3 9.8091 1.0899 -7.6293
3 11.9889 1.0899 -5.4495
3 9.8091 3.2697 -5.4495
3 11.9889 3.2697 -7.6293
4 0 4.3596 -8.7192
4 2.1798 4.3596 -6.5394
4 0 6.5394 -6.5394
4 2.1798 6.5394 -8.7192
3 1.0899 5.4495 -7.6293
3 3.2697 5.4495 -5.4495
3 1.0899 7.6293 -5.4495
3 3.2697 7.6293 -7.6293
4 4.3596 4.3596 -8.7192
4 6.5394 4.3596 -6.5394
4 4.3596 6.5394 -6.5394
4 6.5394 6.5394 -8.7192
3 5.4495 5.4495 -7.6293
3 7.6293 5.4495 -5.4495
3 5.4495 7.6293 -5.4495
3 7.6293 7.6293 -7.6293
4 8.7192 4.3596 -8.7192
4 10.899 4.3596 -6.5394
4 8.7192 6.5394 -6.5394
4 10.899 6.5394 -8.7192
3 9.8091 5.4495 -7.6293
3 11.9889 5.4495 -5.4495
3 9.8091 7.6293 -5.4495
3 11.9889 7.6293 -7.6293
4 0 8.7192 -8.7192
4 2.1798 8.7192 -6.5394
4 0 10.899 -6.5394
4 2.1798 10.899 -8.7192
3 1.0899 9.8091 -7.6293
3 3.2697 9.8091 -5.4495
3 1.0899 11.9889 -5.4495
3 3.2697 11.9889 -7.6293
4 4.3596 8.7192 -8.7192
4 6.5394 8.7192 -6.5394
4 4.3596 10.899 -6.5394
4 6.5394 10.899 -8.7192
3 5.4495 9.8091 -7.6293
3 7.6293 9.8091 -5.4495
3 5.4495 11.9889 -5.4495
3 7.6293 11.9889 -7.6293
4 8.7192 8.7192 -8.7192
4 10.899 8.7192 -6.5394
4 8.7192 10.899 -6.5394
4 10.899 10.899 -8.7192
3 9.8091 9.8091 -7.6293
3 11.9889 9.8091 -5.4495
3 9.8091 11.9889 -5.4495
3 11.9889 11.9889 -7.6293
2 2.0564 13.0691 -2.20013
2 12.9686 2.19323 -2.16854
1 1.00446 1.13739 -3.31117
1 3.19668 1.15138 -1.25998
1 0.975443 3.32884 -1.18123
1 3.29333 3.32449 -3.30307
4 2.1798 2.1798 -4.3596
4 0 0 -4.3596
2 6.48527 0.0777707 -2.24642
2 4.38024 2.27153 -2.21667
1 5.41799 1.11271 -3.33006
1 7.59649 1.12749 -1.12328
1 5.49641 3.39107 -1.05893
1 7.58617 3.33617 -3.28922
4 6.5394 2.1798 -4.3596
4 4.3596 0 -4.3596
2 10.8104 13.0594 -2.13125
2 8.66122 2.22054 -2.16183
1 9.79232 1.12101 -3.24441
1 11.9037 1.1536 -1.02223
1 9.73311 3.33386 -1.09181
1 11.9326 3.3107 -3.28819
4 10.899 2.1798 -4.3596
4 8.7192 0 -4.3596
2 2.16925 4.42966 -2.32285
2 13.0295 6.58715 -2.17561
1 1.05605 5.47966 -3.31549
1 3.25033 5.43698 -1.04948
1 1.07378 7.55631 -1.06472
1 3.25799 7.5892 -3.31203
4 2.1798 6.5394 -4.3596
4 0 4.3596 -4.3596
4 6.5394 6.5394 -4.3596
2 6.52349 4.45306 -2.02032
2 4.26991 6.62696 -2.16337
4 4.3596 4.3596 -4.3596
1 5.5095 5.47982 -3.26053
1 7.56322 5.54787 -1.01167
1 5.38122 7.71971 -1.17853
1 7.61364 7.69846 -3.2564
4 10.899 6.5394 -4.3596
4 8.7192 4.3596 -4.3596
2 10.8812 4.31285 -2.14874
2 8.69528 6.57896 -2.21764
1 9.84861 5.47583 -3.25354
1 11.9199 5.42748 -1.04415
1 9.74542 7.66256 -1.17313
1 11.9739 7.64907 -3.2748
4 2.1798 10.899 -4.3596
4 0 8.7192 -4.3596
2 2.15952 8.67931 -2.24321
2 13.0343 10.7974 -2.20008
1 1.11475 9.8554 -3.30373
1 3.19573 9.90457 -1.16374
1 0.978434 12.0308 -1.05326
1 3.2236 12.0716 -3.31538
4 6.5394 10.899 -4.3596
4 4.3596 8.7192 -4.3596
2 6.51467 8.72932 -2.26335
2 4.31041 10.973 -2.26521
1 5.4474 9.85687 -3.36066
1 7.61041 9.91905 -1.21375
1 5.34974 12.0177 -1.18996
1 7.59754 12.0745 -3.28691
4 10.899 10.899 -4.3596
4 8.7192 8.7192 -4.3596
2 10.8331 8.74974 -2.15136
2 8.65413 10.9903 -2.28636
1 9.78673 9.87805 -3.27894
1 11.9327 9.73544 -1.0936
1 9.73922 12.0272 -1.07719
1 11.9215 11.9951 -3.25725
2 12.7206 12.818 -0.173143
2 2.35865 2.40404 -0.239758
2 4.41682 0.179115 -0.336129
2 6.12785 1.8794 -0.130454
2 8.91118 0.308948 -0.117183
2 10.5779 2.03266 -0.156881
2 0.111006 4.47875 -0.177699
2 1.90233 6.19843 -0.190649
2 4.10458 4.10788 -0.120895
2 6.80514 7.0218 -0.275697
2 8.91409 4.76939 -0.210515
2 10.6114 6.37455 -0.150681
2 0.217951 8.89896 -0.11191
2 1.83534 10.7061 -0.222083
2 4.58222 9.16093 -0.366301
2 6.36467 10.8015 -0.380042
2 8.49082 8.67876 -0.280334
2 10.9579 11.0655 -0.174552
2 3.31677 3.12092 0.568967
2 5.52331 9.99064 0.374509
2 1.02517 5.26791 0.541224
2 9.8689 1.23231 0.783958
2 9.67851 5.73872 0.749008
2 7.61492 7.89037 0.658347
1 8.59225 6.86095 1.81646
2 11.7659 11.891 0.795066
2 10.9054 0.137498 1.68468
2 0.997433 9.90818 0.649029
2 12.8615 10.6763 1.62932
2 5.17104 1.05642 0.573038
1 4.12135 2.14754 1.82902
2 6.26172 8.76354 1.31124
176
Atoms. Timestep: 9998900
4 0 0 -8.7192
4 2.1798 0 -6.5394
4 0 2.1798 -6.5394
4 2.1798 2.1798 -8.7192
3 1.0899 1.0899 -7.6293
3 3.2697 1.0899 -5.4495
3 1.0899 3.2697 -5.4495
3 3.2697 3.2697 -7.6293
4 4.3596 0 -8.7192
4 6.5394 0 -6.5394
4 4.3596 2.1798 -6.5394
4 6.5394 2.1798 -8.7192
3 5.4495 1.0899 -7.6293
3 7.6293 1.0899 -5.4495
3 5.4495 3.2697 -5.4495
3 7.6293 3.2697 -7.6293
4 8.7192 0 -8.7192
4 10.899 0 -6.5394
4 8.7192 2.1798 -6.5394
4 10.899 2.1798 -8.7192
3 9.8091 1.0899 -7.6293
3 11.9889 1.0899 -5.4495
3 9.8091 3.2697 -5.4495
3 11.9889 3.2697 -7.6293
4 0 4.3596 -8.7192
4 2.1798 4.3596 -6.5394
4 0 6.5394 -6.5394
4 2.1798 6.5394 -8.7192
3 1.0899 5.4495 -7.6293
3 3.2697 5.4495 -5.4495
3 1.0899 7.6293 -5.4495
3 3.2697 7.6293 -7.6293
4 4.3596 4.3596 -8.7192
4 6.5394 4.3596 -6.5394
4 4.3596 6.5394 -6.5394
4 6.5394 6.5394 -8.7192
3 5.4495 5.4495 -7.6293
3 7.6293 5.4495 -5.4495
3 5.4495 7.6293 -5.4495
3 7.6293 7.6293 -7.6293
4 8.7192 4.3596 -8.7192
4 10.899 4.3596 -6.5394
4 8.7192 6.5394 -6.5394
4 10.899 6.5394 -8.7192
3 9.8091 5.4495 -7.6293
3 11.9889 5.4495 -5.4495
3 9.8091 7.6293 -5.4495
3 11.9889 7.6293 -7.6293
4 0 8.7192 -8.7192
4 2.1798 8.7192 -6.5394
4 0 10.899 -6.5394
4 2.1798 10.899 -8.7192
3 1.0899 9.8091 -7.6293
3 3.2697 9.8091 -5.4495
3 1.0899 11.9889 -5.4495
3 3.2697 11.9889 -7.6293
4 4.3596 8.7192 -8.7192
4 6.5394 8.7192 -6.5394
4 4.3596 10.899 -6.5394
4 6.5394 10.899 -8.7192
3 5.4495 9.8091 -7.6293
3 7.6293 9.8091 -5.4495
3 5.4495 11.9889 -5.4495
3 7.6293 11.9889 -7.6293
4 8.7192 8.7192 -8.7192
4 10.899 8.7192 -6.5394
4 8.7192 10.899 -6.5394
4 10.899 10.899 -8.7192
3 9.8091 9.8091 -7.6293
3 11.9889 9.8091 -5.4495
3 9.8091 11.9889 -5.4495
3 11.9889 11.9889 -7.6293
2 2.02267 13.0733 -2.2505
2 13.0065 2.23541 -2.29044
1 1.03526 1.08116 -3.31839
1 3.21673 1.19702 -1.19634
1 1.07847 3.29036 -1.17761
1 3.24816 3.35699 -3.31841
4 2.1798 2.1798 -4.3596
4 0 0 -4.3596
2 6.49004 0.0262535 -2.20495
2 4.38856 2.32335 -2.21311
1 5.44144 1.14268 -3.29493
1 7.51972 1.15364 -1.09493
1 5.46354 3.3732 -1.065
1 7.6042 3.2992 -3.24889
4 6.5394 2.1798 -4.3596
4 4.3596 0 -4.3596
2 10.8672 13.0745 -2.19933
2 8.62682 2.20806 -2.16534
1 9.78859 1.14002 -3.2341
1 11.8809 1.16923 -1.077
1 9.75086 3.29505 -1.03337
1 11.9823 3.28549 -3.28765
4 10.899 2.1798 -4.3596
4 8.7192 0 -4.3596
2 2.17519 4.36794 -2.22192
2 0.0272594 6.51303 -2.16316
1 1.09806 5.48325 -3.31184
1 3.2641 5.4118 -1.084
1 1.11338 7.61365 -1.05954
1 3.25072 7.61919 -3.32632
4 2.1798 6.5394 -4.3596
4 0 4.3596 -4.3596
4 6.5394 6.5394 -4.3596
2 6.60351 4.3627 -2.14583
2 4.30416 6.55897 -2.12943
4 4.3596 4.3596 -4.3596
1 5.47552 5.48873 -3.31518
1 7.57906 5.56295 -1.06784
1 5.40068 7.68739 -1.15406
1 7.61484 7.62717 -3.37323
4 10.899 6.5394 -4.3596
4 8.7192 4.3596 -4.3596
2 10.8176 4.34197 -2.16853
2 8.66344 6.61069 -2.33998
1 9.84083 5.48131 -3.27872
1 11.8907 5.42442 -1.04696
1 9.74674 7.65519 -1.13441
1 11.9266 7.66883 -3.19674
4 2.1798 10.899 -4.3596
4 0 8.7192 -4.3596
2 2.1979 8.70531 -2.23949
2 12.9729 10.8311 -2.13468
1 1.06024 9.79936 -3.3147
1 3.20766 9.8607 -1.21339
1 0.981561 12.0229 -1.09422
1 3.19891 12.0465 -3.32412
4 6.5394 10.899 -4.3596
4 4.3596 8.7192 -4.3596
2 6.52768 8.74896 -2.28312
2 4.31641 10.89 -2.28011
1 5.45801 9.82006 -3.32341
1 7.61707 9.91273 -1.22842
1 5.36233 12.0623 -1.25296
1 7.61515 12.0867 -3.31015
4 10.899 10.899 -4.3596
4 8.7192 8.7192 -4.3596
2 10.8535 8.73873 -2.14754
2 8.69669 10.9579 -2.22563
1 9.82074 9.88833 -3.27474
1 11.9128 9.76702 -1.05856
1 9.75012 12.0212 -1.08647
1 12.0296 12 -3.28574
2 12.6629 12.8324 -0.160108
2 2.42513 2.43123 -0.343903
2 4.41692 0.162075 -0.246897
2 6.18985 1.93451 -0.230895
2 8.88426 0.299176 -0.0386183
2 10.6911 2.0745 -0.168693
2 0.147269 4.47903 -0.216197
2 1.85186 6.12447 -0.206674
2 4.15117 4.1557 -0.136055
2 6.83098 7.00066 -0.366759
2 8.93268 4.77232 -0.176307
2 10.6218 6.43026 -0.196059
2 0.245747 8.88105 -0.180884
2 1.88602 10.7125 -0.263253
2 4.54952 9.10418 -0.386904
2 6.32251 10.8503 -0.386606
2 8.40324 8.59019 -0.344885
2 11.0521 11.1711 -0.262856
2 3.31677 3.12092 0.568967
2 5.52331 9.99064 0.374509
2 1.02517 5.26791 0.541224
2 9.8689 1.23231 0.783958
2 9.67851 5.73872 0.749008
2 7.61492 7.89037 0.658347
1 8.59225 6.86095 1.81646
2 11.7659 11.891 0.795066
2 10.9054 0.137498 1.68468
2 0.997433 9.90818 0.649029
2 12.8615 10.6763 1.62932
2 5.17104 1.05642 0.573038
1 4.12135 2.14754 1.82902
2 6.26172 8.76354 1.31124
176
Atoms. Timestep: 9999000
4 0 0 -8.7192
4 2.1798 0 -6.5394
4 0 2.1798 -6.5394
4 2.1798 2.1798 -8.7192
3 1.0899 1.0899 -7.6293
3 3.2697 1.0899 -5.4495
3 1.0899 3.2697 -5.4495
3 3.2697 3.2697 -7.6293
4 4.3596 0 -8.7192
4 6.5394 0 -6.5394
4 4.3596 2.1798 -6.5394
4 6.5394 2.1798 -8.7192
3 5.4495 1.0899 -7.6293
3 7.6293 1.0899 -5.4495
3 5.4495 3.2697 -5.4495
3 7.6293 3.2697 -7.6293
4 8.7192 0 -8.7192
4 10.899 0 -6.5394
4 8.7192 2.1798 -6.5394
4 10.899 2.1798 -8.7192
3 9.8091 1.0899 -7.6293
3 11.9889 1.0899 -5.4495
3 9.8091 3.2697 -5.4495
3 11.9889 3.2697 -7.6293
4 0 4.3596 -8.7192
4 2.1798 4.3596 -6.5394
4 0 6.5394 -6.5394
4 2.1798 6.5394 -8.7192
3 1.0899 5.4495 -7.6293
3 3.2697 5.4495 -5.4495
3 1.0899 7.6293 -5.4495
3 3.2697 7.6293 -7.6293
4 4.3596 4.3596 -8.7192
4 6.5394 4.3596 -6.5394
4 4.3596 6.5394 -6.5394
4 6.5394 6.5394 -8.7192
3 5.4495 5.4495 -7.6293
3 7.6293 5.4495 -5.4495
3 5.4495 7.6293 -5.4495
3 7.6293 7.6293 -7.6293
4 8.7192 4.3596 -8.7192
4 10.899 4.3596 -6.5394
4 8.7192 6.5394 -6.5394
4 10.899 6.5394 -8.7192
3 9.8091 5.4495 -7.6293
3 11.9889 5.4495 -5.4495
3 9.8091 7.6293 -5.4495
3 11.9889 7.6293 -7.6293
4 0 8.7192 -8.7192
4 2.1798 8.7192 -6.5394
4 0 10.899 -6.5394
4 2.1798 10.899 -8.7192
3 1.0899 9.8091 -7.6293
3 3.2697 9.8091 -5.4495
3 1.0899 11.9889 -5.4495
3 3.2697 11.9889 -7.6293
4 4.3596 8.7192 -8.7192
4 6.5394 8.7192 -6.5394
4 4.3596 10.899 -6.5394
4 6.5394 10.899 -8.7192
3 5.4495 9.8091 -7.6293
3 7.6293 9.8091 -5.4495
3 5.4495 11.9889 -5.4495
3 7.6293 11.9889 -7.6293
4 8.7192 8.7192 -8.7192
4 10.899 8.7192 -6.5394
4 8.7192 10.899 -6.5394
4 10.899 10.899 -8.7192
3 9.8091 9.8091 -7.6293
3 11.9889 9.8091 -5.4495
3 9.8091 11.9889 -5.4495
3 11.9889 11.9889 -7.6293
2 2.13979 0.0593843 -2.20183
2 0.0435226 2.17179 -2.22531
1 1.07381 1.07752 -3.31109
1 3.24057 1.07487 -1.20848
1 1.09998 3.24775 -1.19236
1 3.22165 3.31542 -3.29595
4 2.1798 2.1798 -4.3596
4 0 0 -4.3596
2 6.55298 0.0272427 -2.24279
2 4.35355 2.27778 -2.26969
1 5.45276 1.2079 -3.2926
1 7.49535 1.12577 -1.02854
1 5.45119 3.33356 -1.08459
1 7.64273 3.2552 -3.23541
4 6.5394 2.1798 -4.3596
4 4.3596 0 -4.3596
2 10.9299 0.0616555 -2.28277
2 8.65658 2.23734 -2.14894
1 9.76677 1.13347 -3.25967
1 11.9228 1.16498 -1.1564
1 9.75366 3.31796 -0.997619
1 11.9886 3.28345 -3.30082
4 10.899 2.1798 -4.3596
4 8.7192 0 -4.3596
2 2.16927 4.36015 -2.17411
2 13.0552 6.50317 -2.15531
1 1.12054 5.46334 -3.27615
1 3.27439 5.41205 -1.11029
1 1.16527 7.64637 -1.06841
1 3.2595 7.65341 -3.29887
4 2.1798 6.5394 -4.3596
4 0 4.3596 -4.3596
4 6.5394 6.5394 -4.3596
2 6.55914 4.41069 -2.28121
2 4.39279 6.45386 -2.19507
4 4.3596 4.3596 -4.3596
1 5.41563 5.46595 -3.30628
1 7.63808 5.55256 -1.18669
1 5.38993 7.67067 -1.15374
1 7.6318 7.62828 -3.38183
4 10.899 6.5394 -4.3596
4 8.7192 4.3596 -4.3596
2 10.8625 4.37672 -2.21512
2 8.70254 6.5569 -2.30205
1 9.77864 5.45771 -3.3142
1 11.8862 5.41962 -1.08157
1 9.74164 7.69939 -1.14093
1 11.9435 7.64962 -3.19414
4 2.1798 10.899 -4.3596
4 0 8.7192 -4.3596
2 2.17616 8.69163 -2.23242
2 13.0307 10.9319 -2.1945
1 1.00893 9.74935 -3.2843
1 3.19775 9.82423 -1.23835
1 1.02222 12.0278 -1.1136
1 3.1889 11.9733 -3.30029
4 6.5394 10.899 -4.3596
4 4.3596 8.7192 -4.3596
2 6.5538 8.76076 -2.31327
2 4.27802 10.9216 -2.32796
1 5.41742 9.78795 -3.29626
1 7.61452 9.87755 -1.24749
1 5.39981 12.0579 -1.25167
1 7.62283 12.0308 -3.30392