171
Atoms. Timestep: 10000000
4 0 0 -8.7192
4 2.1798 0 -6.5394
4 0 2.1798 -6.5394
4 2.1798 2.1798 -8.7192
3 1.0899 1.0899 -7.6293
3 3.2697 1.0899 -5.4495
3 1.0899 3.2697 -5.4495
3 3.2697 3.2697 -7.6293
4 4.3596 0 -8.7192
4 6.5394 0 -6.5394
4 4.3596 2.1798 -6.5394
4 6.5394 2.1798 -8.7192
3 5.4495 1.0899 -7.6293
3 7.6293 1.0899 -5.4495
3 5.4495 3.2697 -5.4495
3 7.6293 3.2697 -7.6293
4 8.7192 0 -8.7192
4 10.899 0 -6.5394
4 8.7192 2.1798 -6.5394
4 10.899 2.1798 -8.7192
3 9.8091 1.0899 -7.6293
3 11.9889 1.0899 -5.4495
3 9.8091 3.2697 -5.4495
3 11.9889 3.2697 -7.6293
4 0 4.3596 -8.7192
4 2.1798 4.3596 -6.5394
4 0 6.5394 -6.5394
4 2.1798 6.5394 -8.7192
3 1.0899 5.4495 -7.6293
3 3.2697 5.4495 -5.4495
3 1.0899 7.6293 -5.4495
3 3.2697 7.6293 -7.6293
4 4.3596 4.3596 -8.7192
4 6.5394 4.3596 -6.5394
4 4.3596 6.5394 -6.5394
4 6.5394 6.5394 -8.7192
3 5.4495 5.4495 -7.6293
3 7.6293 5.4495 -5.4495
3 5.4495 7.6293 -5.4495
3 7.6293 7.6293 -7.6293
4 8.7192 4.3596 -8.7192
4 10.899 4.3596 -6.5394
4 8.7192 6.5394 -6.5394
4 10.899 6.5394 -8.7192
3 9.8091 5.4495 -7.6293
3 11.9889 5.4495 -5.4495
3 9.8091 7.6293 -5.4495
3 11.9889 7.6293 -7.6293
4 0 8.7192 -8.7192
4 2.1798 8.7192 -6.5394
4 0 10.899 -6.5394
4 2.1798 10.899 -8.7192
3 1.0899 9.8091 -7.6293
3 3.2697 9.8091 -5.4495
3 1.0899 11.9889 -5.4495
3 3.2697 11.9889 -7.6293
4 4.3596 8.7192 -8.7192
4 6.5394 8.7192 -6.5394
4 4.3596 10.899 -6.5394
4 6.5394 10.899 -8.7192
3 5.4495 9.8091 -7.6293
3 7.6293 9.8091 -5.4495
3 5.4495 11.9889 -5.4495
3 7.6293 11.9889 -7.6293
4 8.7192 8.7192 -8.7192
4 10.899 8.7192 -6.5394
4 8.7192 10.899 -6.5394
4 10.899 10.899 -8.7192
3 9.8091 9.8091 -7.6293
3 11.9889 9.8091 -5.4495
3 9.8091 11.9889 -5.4495
3 11.9889 11.9889 -7.6293
2 2.24961 13.0085 -2.13142
2 13.0045 2.19611 -2.19186
1 1.12547 1.1022 -3.20405
1 3.29106 1.10596 -1.03297
1 1.00035 3.23376 -1.11737
1 3.28634 3.27273 -3.30851
4 2.1798 2.1798 -4.3596
4 0 0 -4.3596
2 6.49237 13.0103 -2.20266
2 4.32977 2.24036 -2.12515
1 5.4195 1.16326 -3.2588
1 7.58424 1.05328 -1.17
1 5.41778 3.26404 -0.988724
1 7.68103 3.27626 -3.32111
4 6.5394 2.1798 -4.3596
4 4.3596 0 -4.3596
2 10.8601 0.00942742 -2.23834
2 8.64789 2.22704 -2.16237
1 9.75227 1.11467 -3.27805
1 11.9168 1.07475 -1.14978
1 9.77427 3.26801 -1.13005
1 11.9683 3.21884 -3.31291
4 10.899 2.1798 -4.3596
4 8.7192 0 -4.3596
2 2.19226 4.33109 -2.22477
2 13.0498 6.47679 -2.24015
1 1.12138 5.43457 -3.36934
1 3.16933 5.54975 -0.931103
1 0.988707 7.63482 -1.0405
1 3.25468 7.65685 -3.27148
4 2.1798 6.5394 -4.3596
4 0 4.3596 -4.3596
4 6.5394 6.5394 -4.3596
2 6.50308 4.28392 -2.14878
2 4.26965 6.50903 -2.16362
4 4.3596 4.3596 -4.3596
1 5.40853 5.4155 -3.30234
1 7.61802 5.47773 -1.06948
1 5.42991 7.69475 -1.16756
1 7.69626 7.55747 -3.32236
4 10.899 6.5394 -4.3596
4 8.7192 4.3596 -4.3596
2 10.9374 4.37895 -2.27468
2 8.75256 6.47349 -2.22055
1 9.79896 5.39432 -3.29013
1 11.9651 5.39771 -1.21877
1 9.82357 7.55991 -1.14222
1 11.9702 7.64468 -3.32708
4 2.1798 10.899 -4.3596
4 0 8.7192 -4.3596
2 2.16686 8.70286 -2.03996
2 13.0291 10.9652 -2.19529
1 1.12989 9.79199 -3.30132
1 3.22924 9.82206 -0.960464
1 1.05743 11.9441 -1.05048
1 3.26535 11.9322 -3.32956
4 6.5394 10.899 -4.3596
4 4.3596 8.7192 -4.3596
2 6.58875 8.66702 -2.28286
2 4.32594 10.8448 -2.1841
1 5.45887 9.80147 -3.29221
1 7.63714 9.77922 -1.19108
1 5.44653 11.9949 -1.09981
1 7.65756 11.9794 -3.29609
4 10.899 10.899 -4.3596
4 8.7192 8.7192 -4.3596
2 10.9522 8.64743 -2.15505
2 8.68201 10.8785 -2.21785
1 9.8516 9.80183 -3.24984
1 11.9337 9.85382 -1.12484
1 9.72162 11.9678 -1.07451
1 11.9636 12.0499 -3.28444
2 0.0230897 0.121504 -0.257936
2 1.76178 1.92192 -0.153083
2 4.56486 0.0951055 0.0193421
2 6.35004 1.863 -0.0804643
2 8.8515 0.214259 -0.192924
2 10.6202 1.97687 -0.265161
2 0.138696 4.48376 -0.101505
2 1.75886 6.36603 0.0080582
2 4.50778 4.62804 -0.00611575
2 6.3209 6.41952 -0.216825
2 9.02976 4.60249 -0.182992
2 10.8313 6.33822 -0.24115
2 0.0603788 8.88143 -0.147515
2 1.913 10.7022 0.0978346
2 4.63354 8.91933 -0.193657
2 6.41231 10.6627 -0.221731
2 8.92099 8.80367 -0.20679
2 10.6266 10.6555 -0.214629
2 5.61045 9.71285 0.546762
2 0.897556 5.37453 0.710314
2 10.0785 5.41888 0.571745
2 9.76306 1.10466 0.484091
2 9.78535 9.62336 0.532528
2 5.543 0.981737 0.769105
2 0.984193 9.72453 0.683205
2 5.41566 5.62821 0.624126
2 0.796139 1.09999 0.479792
