176
Atoms. Timestep: 10000000
C 0 0 -8.7192
C 2.1798 0 -6.5394
C 0 2.1798 -6.5394
C 2.1798 2.1798 -8.7192
Si 1.0899 1.0899 -7.6293
Si 3.2697 1.0899 -5.4495
Si 1.0899 3.2697 -5.4495
Si 3.2697 3.2697 -7.6293
C 4.3596 0 -8.7192
C 6.5394 0 -6.5394
C 4.3596 2.1798 -6.5394
C 6.5394 2.1798 -8.7192
Si 5.4495 1.0899 -7.6293
Si 7.6293 1.0899 -5.4495
Si 5.4495 3.2697 -5.4495
Si 7.6293 3.2697 -7.6293
C 8.7192 0 -8.7192
C 10.899 0 -6.5394
C 8.7192 2.1798 -6.5394
C 10.899 2.1798 -8.7192
Si 9.8091 1.0899 -7.6293
Si 11.9889 1.0899 -5.4495
Si 9.8091 3.2697 -5.4495
Si 11.9889 3.2697 -7.6293
C 0 4.3596 -8.7192
C 2.1798 4.3596 -6.5394
C 0 6.5394 -6.5394
C 2.1798 6.5394 -8.7192
Si 1.0899 5.4495 -7.6293
Si 3.2697 5.4495 -5.4495
Si 1.0899 7.6293 -5.4495
Si 3.2697 7.6293 -7.6293
C 4.3596 4.3596 -8.7192
C 6.5394 4.3596 -6.5394
C 4.3596 6.5394 -6.5394
C 6.5394 6.5394 -8.7192
Si 5.4495 5.4495 -7.6293
Si 7.6293 5.4495 -5.4495
Si 5.4495 7.6293 -5.4495
Si 7.6293 7.6293 -7.6293
C 8.7192 4.3596 -8.7192
C 10.899 4.3596 -6.5394
C 8.7192 6.5394 -6.5394
C 10.899 6.5394 -8.7192
Si 9.8091 5.4495 -7.6293
Si 11.9889 5.4495 -5.4495
Si 9.8091 7.6293 -5.4495
Si 11.9889 7.6293 -7.6293
C 0 8.7192 -8.7192
C 2.1798 8.7192 -6.5394
C 0 10.899 -6.5394
C 2.1798 10.899 -8.7192
Si 1.0899 9.8091 -7.6293
Si 3.2697 9.8091 -5.4495
Si 1.0899 11.9889 -5.4495
Si 3.2697 11.9889 -7.6293
C 4.3596 8.7192 -8.7192
C 6.5394 8.7192 -6.5394
C 4.3596 10.899 -6.5394
C 6.5394 10.899 -8.7192
Si 5.4495 9.8091 -7.6293
Si 7.6293 9.8091 -5.4495
Si 5.4495 11.9889 -5.4495
Si 7.6293 11.9889 -7.6293
C 8.7192 8.7192 -8.7192
C 10.899 8.7192 -6.5394
C 8.7192 10.899 -6.5394
C 10.899 10.899 -8.7192
Si 9.8091 9.8091 -7.6293
Si 11.9889 9.8091 -5.4495
Si 9.8091 11.9889 -5.4495
Si 11.9889 11.9889 -7.6293
C 2.12246 0.0583921 -2.18195
C 13.0452 2.24013 -2.07062
Si 1.00156 1.10044 -3.22826
Si 3.28477 1.05135 -1.13551
Si 1.09469 3.29773 -1.03631
Si 3.17923 3.26309 -3.22337
C 2.1798 2.1798 -4.3596
C 0 0 -4.3596
C 6.47929 0.0250457 -2.26747
C 4.33001 2.18234 -2.19959
Si 5.42448 1.12408 -3.29192
Si 7.60094 1.10263 -1.19388
Si 5.36069 3.22964 -1.07514
Si 7.64029 3.21452 -3.34582
C 6.5394 2.1798 -4.3596
C 4.3596 0 -4.3596
C 10.9144 0.0647426 -2.20736
C 8.75672 2.15881 -2.26396
Si 9.8399 1.01499 -3.31464
Si 11.9413 1.14712 -1.02518
Si 9.82324 3.27189 -1.07025
Si 12.0223 3.27383 -3.25128
C 10.899 2.1798 -4.3596
C 8.7192 0 -4.3596
C 2.13864 4.41437 -2.24416
C 13.0725 6.53937 -2.32564
Si 1.0337 5.45622 -3.33323
Si 3.25497 5.51962 -1.21043
Si 1.09534 7.59807 -1.19322
Si 3.28832 7.6585 -3.29145
C 2.1798 6.5394 -4.3596
C 0 4.3596 -4.3596
C 6.5394 6.5394 -4.3596
C 6.62187 4.34694 -2.20024
C 4.463 6.52605 -2.24845
C 4.3596 4.3596 -4.3596
Si 5.49416 5.40781 -3.2834
Si 7.66398 5.49556 -1.1696
Si 5.48894 7.69882 -1.19084
Si 7.59905 7.69929 -3.31079
C 10.899 6.5394 -4.3596
C 8.7192 4.3596 -4.3596
C 10.9921 4.39933 -2.24535
C 8.68542 6.61162 -2.20358
Si 9.85339 5.45593 -3.32718
Si 12.0217 5.49092 -1.12446
Si 9.76768 7.64724 -1.07934
Si 11.9371 7.64121 -3.30016
C 2.1798 10.899 -4.3596
C 0 8.7192 -4.3596
C 2.18017 8.75964 -2.17859
C 13.0371 10.8784 -2.24466
Si 1.10785 9.80293 -3.27913
Si 3.19362 9.87463 -1.0888
Si 1.00861 11.995 -1.11425
Si 3.21454 12.0458 -3.31
C 6.5394 10.899 -4.3596
C 4.3596 8.7192 -4.3596
C 6.55532 8.79509 -2.19173
C 4.24781 10.8938 -2.21185
Si 5.39882 9.82723 -3.27069
Si 7.71136 9.95054 -1.05377
Si 5.43484 11.9967 -1.20275
Si 7.59667 12.027 -3.37428
C 10.899 10.899 -4.3596
C 8.7192 8.7192 -4.3596
C 10.9659 8.72623 -2.19944
C 8.73744 11.0422 -2.25686
Si 9.8534 9.83036 -3.30372
Si 11.9822 9.82148 -1.15193
Si 9.85179 12.04 -1.13606
Si 12.0022 11.9824 -3.27004
C 12.7514 12.8876 -0.19965
C 2.28188 2.1824 -0.28648
C 4.32983 13.0274 -0.0410181
C 6.12794 1.78031 -0.366899
C 8.75046 0.0759828 -0.0617451
C 10.5255 1.95918 -0.109477
C 0.34733 4.73374 -0.240091
C 2.21059 6.62317 -0.0864149
C 4.55751 4.6003 -0.280663
C 6.22732 6.36036 -0.365271
C 9.0415 4.69439 -0.287279
C 10.9178 6.47147 -0.107551
C 12.6648 8.31552 -0.40975
C 2.32695 11.1626 -0.143214
C 4.03587 8.37127 -0.327053
C 6.83538 11.377 -0.364405
C 9.18786 9.20495 -0.322156
C 10.9624 11.0631 -0.112928
C 3.35283 7.50828 0.603677
Si 3.21536 12.0264 1.13078
C 9.62377 1.23775 0.710793
C 5.3215 5.5566 0.436298
C 9.84114 5.59396 0.491907
C 11.8889 12.0622 0.584061
C 11.8583 7.54408 0.570392
C 5.40915 0.899238 0.625998
C 1.26409 5.59241 0.547409
C 4.40176 6.65548 1.45919
C 7.56537 12.2411 0.547497
C 6.51878 0.0269688 1.36429
C 10.1675 9.97743 0.609381
C 10.923 8.64371 1.33226
