162
Atoms. Timestep: 1000
C 0 0 -8.7192
C 2.1798 0 -6.5394
C 0 2.1798 -6.5394
C 2.1798 2.1798 -8.7192
Si 1.0899 1.0899 -7.6293
Si 3.2697 1.0899 -5.4495
Si 1.0899 3.2697 -5.4495
Si 3.2697 3.2697 -7.6293
C 4.3596 0 -8.7192
C 6.5394 0 -6.5394
C 4.3596 2.1798 -6.5394
C 6.5394 2.1798 -8.7192
Si 5.4495 1.0899 -7.6293
Si 7.6293 1.0899 -5.4495
Si 5.4495 3.2697 -5.4495
Si 7.6293 3.2697 -7.6293
C 8.7192 0 -8.7192
C 10.899 0 -6.5394
C 8.7192 2.1798 -6.5394
C 10.899 2.1798 -8.7192
Si 9.8091 1.0899 -7.6293
Si 11.9889 1.0899 -5.4495
Si 9.8091 3.2697 -5.4495
Si 11.9889 3.2697 -7.6293
C 0 4.3596 -8.7192
C 2.1798 4.3596 -6.5394
C 0 6.5394 -6.5394
C 2.1798 6.5394 -8.7192
Si 1.0899 5.4495 -7.6293
Si 3.2697 5.4495 -5.4495
Si 1.0899 7.6293 -5.4495
Si 3.2697 7.6293 -7.6293
C 4.3596 4.3596 -8.7192
C 6.5394 4.3596 -6.5394
C 4.3596 6.5394 -6.5394
C 6.5394 6.5394 -8.7192
Si 5.4495 5.4495 -7.6293
Si 7.6293 5.4495 -5.4495
Si 5.4495 7.6293 -5.4495
Si 7.6293 7.6293 -7.6293
C 8.7192 4.3596 -8.7192
C 10.899 4.3596 -6.5394
C 8.7192 6.5394 -6.5394
C 10.899 6.5394 -8.7192
Si 9.8091 5.4495 -7.6293
Si 11.9889 5.4495 -5.4495
Si 9.8091 7.6293 -5.4495
Si 11.9889 7.6293 -7.6293
C 0 8.7192 -8.7192
C 2.1798 8.7192 -6.5394
C 0 10.899 -6.5394
C 2.1798 10.899 -8.7192
Si 1.0899 9.8091 -7.6293
Si 3.2697 9.8091 -5.4495
Si 1.0899 11.9889 -5.4495
Si 3.2697 11.9889 -7.6293
C 4.3596 8.7192 -8.7192
C 6.5394 8.7192 -6.5394
C 4.3596 10.899 -6.5394
C 6.5394 10.899 -8.7192
Si 5.4495 9.8091 -7.6293
Si 7.6293 9.8091 -5.4495
Si 5.4495 11.9889 -5.4495
Si 7.6293 11.9889 -7.6293
C 8.7192 8.7192 -8.7192
C 10.899 8.7192 -6.5394
C 8.7192 10.899 -6.5394
C 10.899 10.899 -8.7192
Si 9.8091 9.8091 -7.6293
Si 11.9889 9.8091 -5.4495
Si 9.8091 11.9889 -5.4495
Si 11.9889 11.9889 -7.6293
C 2.1677 0.0126003 -2.14512
C 0.0645461 2.2385 -2.17568
Si 1.09789 1.1241 -3.21974
Si 3.20239 1.11861 -1.09669
Si 1.11027 3.29512 -1.07271
Si 3.26922 3.36322 -3.25353
C 2.1798 2.1798 -4.3596
C 0 0 -4.3596
C 6.61317 13.0664 -2.21373
C 4.35681 2.27138 -2.13078
Si 5.44945 1.08201 -3.27086
Si 7.56702 1.16708 -1.1348
Si 5.42488 3.35627 -1.02296
Si 7.67814 3.27475 -3.30016
C 6.5394 2.1798 -4.3596
C 4.3596 0 -4.3596
C 10.8628 0.0175053 -2.20154
C 8.77021 2.18515 -2.21574
Si 9.84866 1.08761 -3.30203
Si 12.0502 1.15064 -1.06451
Si 9.85575 3.31882 -1.05693
Si 12.0269 3.27562 -3.27023
C 10.899 2.1798 -4.3596
C 8.7192 0 -4.3596
C 2.20596 4.40795 -2.18194
C 13.0605 6.58544 -2.28259
Si 1.12563 5.46239 -3.31927
Si 3.30178 5.56372 -1.07123
Si 1.08146 7.68333 -1.10661
Si 3.32475 7.66399 -3.27397
C 2.1798 6.5394 -4.3596
C 0 4.3596 -4.3596
C 6.5394 6.5394 -4.3596
C 6.59335 4.41514 -2.17316
C 4.37282 6.61685 -2.15097
C 4.3596 4.3596 -4.3596
Si 5.45978 5.41027 -3.32408
Si 7.63413 5.47159 -1.04443
Si 5.44311 7.71132 -1.06971
Si 7.6266 7.66172 -3.21467
C 10.899 6.5394 -4.3596
C 8.7192 4.3596 -4.3596
C 10.8906 4.32791 -2.19337
C 8.76485 6.57339 -2.15591
Si 9.83563 5.4902 -3.25205
Si 12.0282 5.44387 -1.1028
Si 9.82629 7.62713 -1.11356
Si 11.9785 7.61185 -3.33332
C 2.1798 10.899 -4.3596
C 0 8.7192 -4.3596
C 2.22305 8.68847 -2.2046
C 0.0381688 10.9341 -2.23875
Si 1.08691 9.82554 -3.29601
Si 3.23442 9.80336 -1.09882
Si 1.13001 12.006 -1.16756
Si 3.23087 12.0344 -3.28556
C 6.5394 10.899 -4.3596
C 4.3596 8.7192 -4.3596
C 6.51303 8.68806 -2.18407
C 4.2771 10.9505 -2.22623
Si 5.43998 9.8633 -3.26627
Si 7.64022 9.79775 -1.06726
Si 5.43295 12.0142 -1.14809
Si 7.66256 11.9894 -3.32319
C 10.899 10.899 -4.3596
C 8.7192 8.7192 -4.3596
C 10.9594 8.67695 -2.10582
C 8.72655 10.987 -2.12446
Si 9.78173 9.81693 -3.28985
Si 12.0511 9.87541 -1.05127
Si 9.82811 12.0943 -1.00779
Si 11.9803 11.9765 -3.25256
C 0.0302692 0.0463447 -0.268431
C 2.19491 2.25692 -0.158685
C 4.42688 0.0791456 -0.291773
C 6.48423 2.30898 -0.166903
C 8.70111 0.0940656 -0.12555
C 10.9488 2.22065 -0.192395
C 0.014649 4.39279 -0.17771
C 2.1726 6.62494 -0.219717
C 4.29328 4.47323 -0.263424
C 6.45166 6.5635 -0.190714
C 8.86556 4.47534 -0.154359
C 10.99 6.53649 -0.209991
C 13.0416 8.68262 -0.15816
C 2.12884 10.8711 -0.27562
C 4.37217 8.82896 -0.236217
C 6.6009 10.9034 -0.245157
C 8.90531 8.82569 -0.229246
C 10.7894 10.874 -0.210446
