175
Atoms. Timestep: 10000000
4 0 0 -8.7192
4 2.1798 0 -6.5394
4 0 2.1798 -6.5394
4 2.1798 2.1798 -8.7192
3 1.0899 1.0899 -7.6293
3 3.2697 1.0899 -5.4495
3 1.0899 3.2697 -5.4495
3 3.2697 3.2697 -7.6293
4 4.3596 0 -8.7192
4 6.5394 0 -6.5394
4 4.3596 2.1798 -6.5394
4 6.5394 2.1798 -8.7192
3 5.4495 1.0899 -7.6293
3 7.6293 1.0899 -5.4495
3 5.4495 3.2697 -5.4495
3 7.6293 3.2697 -7.6293
4 8.7192 0 -8.7192
4 10.899 0 -6.5394
4 8.7192 2.1798 -6.5394
4 10.899 2.1798 -8.7192
3 9.8091 1.0899 -7.6293
3 11.9889 1.0899 -5.4495
3 9.8091 3.2697 -5.4495
3 11.9889 3.2697 -7.6293
4 0 4.3596 -8.7192
4 2.1798 4.3596 -6.5394
4 0 6.5394 -6.5394
4 2.1798 6.5394 -8.7192
3 1.0899 5.4495 -7.6293
3 3.2697 5.4495 -5.4495
3 1.0899 7.6293 -5.4495
3 3.2697 7.6293 -7.6293
4 4.3596 4.3596 -8.7192
4 6.5394 4.3596 -6.5394
4 4.3596 6.5394 -6.5394
4 6.5394 6.5394 -8.7192
3 5.4495 5.4495 -7.6293
3 7.6293 5.4495 -5.4495
3 5.4495 7.6293 -5.4495
3 7.6293 7.6293 -7.6293
4 8.7192 4.3596 -8.7192
4 10.899 4.3596 -6.5394
4 8.7192 6.5394 -6.5394
4 10.899 6.5394 -8.7192
3 9.8091 5.4495 -7.6293
3 11.9889 5.4495 -5.4495
3 9.8091 7.6293 -5.4495
3 11.9889 7.6293 -7.6293
4 0 8.7192 -8.7192
4 2.1798 8.7192 -6.5394
4 0 10.899 -6.5394
4 2.1798 10.899 -8.7192
3 1.0899 9.8091 -7.6293
3 3.2697 9.8091 -5.4495
3 1.0899 11.9889 -5.4495
3 3.2697 11.9889 -7.6293
4 4.3596 8.7192 -8.7192
4 6.5394 8.7192 -6.5394
4 4.3596 10.899 -6.5394
4 6.5394 10.899 -8.7192
3 5.4495 9.8091 -7.6293
3 7.6293 9.8091 -5.4495
3 5.4495 11.9889 -5.4495
3 7.6293 11.9889 -7.6293
4 8.7192 8.7192 -8.7192
4 10.899 8.7192 -6.5394
4 8.7192 10.899 -6.5394
4 10.899 10.899 -8.7192
3 9.8091 9.8091 -7.6293
3 11.9889 9.8091 -5.4495
3 9.8091 11.9889 -5.4495
3 11.9889 11.9889 -7.6293
2 2.19854 13.0309 -2.22929
2 12.9665 2.21786 -2.15262
1 1.06614 1.15932 -3.22398
1 3.26129 1.17363 -1.09576
1 1.08911 3.29457 -1.05459
1 3.22544 3.25376 -3.28388
4 2.1798 2.1798 -4.3596
4 0 0 -4.3596
2 6.48637 0.0200686 -2.15118
2 4.41266 2.2633 -2.15984
1 5.39223 1.1113 -3.277
1 7.54542 1.16086 -1.16157
1 5.48623 3.32333 -0.949802
1 7.58957 3.28712 -3.27911
4 6.5394 2.1798 -4.3596
4 4.3596 0 -4.3596
2 10.8684 13.0426 -2.29593
2 8.64853 2.14152 -2.26087
1 9.83318 1.08187 -3.35825
1 11.8816 1.09359 -1.12145
1 9.77544 3.23749 -1.16226
1 11.9904 3.30723 -3.3373
4 10.899 2.1798 -4.3596
4 8.7192 0 -4.3596
2 2.18121 4.38453 -2.16109
2 13.0171 6.50489 -2.23031
1 1.05331 5.46731 -3.26147
1 3.23226 5.47588 -1.12771
1 1.17581 7.67078 -1.21606
1 3.29927 7.63483 -3.36777
4 2.1798 6.5394 -4.3596
4 0 4.3596 -4.3596
4 6.5394 6.5394 -4.3596
2 6.47676 4.31159 -2.0972
2 4.33799 6.56458 -2.20986
4 4.3596 4.3596 -4.3596
1 5.42446 5.47372 -3.34444
1 7.67929 5.49541 -0.998467
1 5.49607 7.66458 -1.17596
1 7.62277 7.63199 -3.30727
4 10.899 6.5394 -4.3596
4 8.7192 4.3596 -4.3596
2 10.7949 4.35684 -2.23883
2 8.77487 6.56851 -2.14697
1 9.74051 5.47927 -3.29465
1 11.8915 5.41621 -1.13227
1 9.75841 7.63415 -1.07044
1 11.9686 7.59314 -3.3068
4 2.1798 10.899 -4.3596
4 0 8.7192 -4.3596
2 2.20924 8.75709 -2.27036
2 0.0643039 10.9144 -2.2437
1 1.09631 9.84811 -3.29083
1 3.32865 9.80621 -1.22304
1 1.03589 11.9941 -1.20983
1 3.25586 11.9851 -3.36923
4 6.5394 10.899 -4.3596
4 4.3596 8.7192 -4.3596
2 6.56035 8.76166 -2.29983
2 4.38824 10.9002 -2.32025
1 5.44503 9.79121 -3.36464
1 7.59716 9.87572 -1.23788
1 5.39886 12.0277 -1.20042
1 7.59499 12.0459 -3.29974
4 10.899 10.899 -4.3596
4 8.7192 8.7192 -4.3596
2 10.8809 8.66347 -2.2545
2 8.68859 10.9039 -2.26463
1 9.83313 9.78988 -3.30484
1 11.9382 9.86923 -1.17878
1 9.73535 11.9815 -1.18156
1 12.0182 11.9887 -3.33234
2 0.126948 0.268985 -0.270293
2 1.86577 1.94417 -0.226637
2 4.07046 12.8965 -0.371063
2 6.88458 2.45011 -0.174011
2 8.75292 0.140282 -0.306495
2 10.4718 1.80914 -0.31839
2 0.2661 4.63594 -0.236956
2 1.92488 6.26576 -0.294144
2 4.63122 4.74258 -0.0241353
2 6.38458 6.51849 -0.203824
2 8.48822 4.06393 -0.062756
2 11.212 6.8801 -0.372339
2 12.8668 8.62268 -0.278417
2 2.29853 11.0769 -0.258722
2 4.71655 8.9993 -0.35276
2 6.38675 10.8141 -0.281416
2 8.96036 9.07867 -0.365918
2 10.7144 10.8064 -0.281412
2 7.79829 3.14818 0.738276
2 9.5296 1.05252 0.462411
2 12.112 7.64756 0.426717
1 8.70636 2.16932 1.73951
2 5.53784 5.67412 0.587007
2 1.10845 5.46791 0.694602
2 9.81105 9.93928 0.378954
1 3.15 12.112 1.03043
2 1.04048 1.05721 0.648022
2 1.70342 12.9766 1.53981
2 12.9967 6.56676 1.39779
2 5.54976 9.96109 0.550254
2 4.51484 10.7666 1.65337
