176
Atoms. Timestep: 10000000
4 0 0 -8.7192
4 2.1798 0 -6.5394
4 0 2.1798 -6.5394
4 2.1798 2.1798 -8.7192
3 1.0899 1.0899 -7.6293
3 3.2697 1.0899 -5.4495
3 1.0899 3.2697 -5.4495
3 3.2697 3.2697 -7.6293
4 4.3596 0 -8.7192
4 6.5394 0 -6.5394
4 4.3596 2.1798 -6.5394
4 6.5394 2.1798 -8.7192
3 5.4495 1.0899 -7.6293
3 7.6293 1.0899 -5.4495
3 5.4495 3.2697 -5.4495
3 7.6293 3.2697 -7.6293
4 8.7192 0 -8.7192
4 10.899 0 -6.5394
4 8.7192 2.1798 -6.5394
4 10.899 2.1798 -8.7192
3 9.8091 1.0899 -7.6293
3 11.9889 1.0899 -5.4495
3 9.8091 3.2697 -5.4495
3 11.9889 3.2697 -7.6293
4 0 4.3596 -8.7192
4 2.1798 4.3596 -6.5394
4 0 6.5394 -6.5394
4 2.1798 6.5394 -8.7192
3 1.0899 5.4495 -7.6293
3 3.2697 5.4495 -5.4495
3 1.0899 7.6293 -5.4495
3 3.2697 7.6293 -7.6293
4 4.3596 4.3596 -8.7192
4 6.5394 4.3596 -6.5394
4 4.3596 6.5394 -6.5394
4 6.5394 6.5394 -8.7192
3 5.4495 5.4495 -7.6293
3 7.6293 5.4495 -5.4495
3 5.4495 7.6293 -5.4495
3 7.6293 7.6293 -7.6293
4 8.7192 4.3596 -8.7192
4 10.899 4.3596 -6.5394
4 8.7192 6.5394 -6.5394
4 10.899 6.5394 -8.7192
3 9.8091 5.4495 -7.6293
3 11.9889 5.4495 -5.4495
3 9.8091 7.6293 -5.4495
3 11.9889 7.6293 -7.6293
4 0 8.7192 -8.7192
4 2.1798 8.7192 -6.5394
4 0 10.899 -6.5394
4 2.1798 10.899 -8.7192
3 1.0899 9.8091 -7.6293
3 3.2697 9.8091 -5.4495
3 1.0899 11.9889 -5.4495
3 3.2697 11.9889 -7.6293
4 4.3596 8.7192 -8.7192
4 6.5394 8.7192 -6.5394
4 4.3596 10.899 -6.5394
4 6.5394 10.899 -8.7192
3 5.4495 9.8091 -7.6293
3 7.6293 9.8091 -5.4495
3 5.4495 11.9889 -5.4495
3 7.6293 11.9889 -7.6293
4 8.7192 8.7192 -8.7192
4 10.899 8.7192 -6.5394
4 8.7192 10.899 -6.5394
4 10.899 10.899 -8.7192
3 9.8091 9.8091 -7.6293
3 11.9889 9.8091 -5.4495
3 9.8091 11.9889 -5.4495
3 11.9889 11.9889 -7.6293
2 2.20612 0.0101129 -2.2984
2 13.0827 2.14566 -2.27304
1 1.09367 1.07572 -3.35889
1 3.26437 1.08942 -1.22431
1 1.06752 3.25327 -1.25056
1 3.24813 3.2647 -3.32644
4 2.1798 2.1798 -4.3596
4 0 0 -4.3596
2 6.57843 0.0333697 -2.32267
2 4.37814 2.25147 -2.23237
1 5.45357 1.15376 -3.34617
1 7.61976 1.11978 -1.11211
1 5.55171 3.39733 -1.13749
1 7.64431 3.30435 -3.34893
4 6.5394 2.1798 -4.3596
4 4.3596 0 -4.3596
2 10.9047 13.0578 -2.21881
2 8.71777 2.16953 -2.2629
1 9.82809 1.09952 -3.37678
1 11.9751 1.02088 -1.22345
1 9.86219 3.27271 -1.24605
1 11.99 3.24218 -3.34086
4 10.899 2.1798 -4.3596
4 8.7192 0 -4.3596
2 2.16544 4.38051 -2.26701
2 0.00324775 6.51231 -2.24234
1 1.11018 5.46158 -3.30418
1 3.27576 5.44999 -1.15418
1 0.94573 7.66768 -1.12068
1 3.21464 7.6555 -3.25769
4 2.1798 6.5394 -4.3596
4 0 4.3596 -4.3596
4 6.5394 6.5394 -4.3596
2 6.67058 4.4136 -2.16153
2 4.35471 6.51451 -2.26031
4 4.3596 4.3596 -4.3596
1 5.44983 5.45778 -3.30191
1 7.78106 5.44068 -1.10436
1 5.44703 7.57432 -1.18871
1 7.58466 7.68239 -3.3032
4 10.899 6.5394 -4.3596
4 8.7192 4.3596 -4.3596
2 10.9949 4.30231 -2.24565
2 8.7734 6.55501 -2.1906
1 9.82717 5.43445 -3.31628
1 12.0152 5.48615 -1.19993
1 9.87986 7.66055 -1.14718
1 11.9773 7.63896 -3.35528
4 2.1798 10.899 -4.3596
4 0 8.7192 -4.3596
2 2.11225 8.74825 -2.25433
2 13.0368 10.9491 -2.25015
1 1.08235 9.89949 -3.27771
1 3.18907 9.82324 -1.15295
1 1.11893 12.076 -1.18362
1 3.31917 11.9322 -3.2998
4 6.5394 10.899 -4.3596
4 4.3596 8.7192 -4.3596
2 6.49454 8.73391 -2.18417
2 4.31668 10.9161 -2.24342
1 5.43907 9.80322 -3.32437
1 7.59598 9.85323 -1.16838
1 5.41051 12.0592 -1.16991
1 7.61871 12.018 -3.31676
4 10.899 10.899 -4.3596
4 8.7192 8.7192 -4.3596
2 10.8611 8.68324 -2.27193
2 8.65108 10.9233 -2.26213
1 9.76866 9.85613 -3.26859
1 11.8969 9.86888 -1.14954
1 9.77304 12.0149 -1.1187
1 12.001 11.9803 -3.31731
2 0.344356 0.445304 -0.343972
2 2.1998 2.24987 -0.131398
2 4.5262 0.199643 -0.223785
2 6.22254 1.97046 -0.234787
2 8.9571 0.306117 -0.259462
2 10.982 2.1835 -0.260942
2 12.7792 4.11291 -0.48804
2 2.26748 6.75853 -0.275408
2 4.12102 4.05102 -0.287754
2 7.01868 6.97352 -0.416515
2 9.03873 4.48655 -0.282161
2 10.7974 6.29937 -0.224999
2 0.153516 9.04075 -0.30211
2 1.92924 10.8009 -0.313153
2 4.6293 9.01439 -0.30798
2 6.26298 10.7326 -0.271907
2 8.90279 8.87342 0.0229786
2 10.6424 10.7536 0.000968002
2 3.31677 3.12092 0.568967
2 11.925 3.31156 0.367295
1 10.0785 5.27496 1.07632
2 5.52719 9.79689 0.544768
2 5.24264 1.20428 0.60074
2 11.2978 3.87976 1.82133
2 9.7737 9.90664 0.836985
2 0.988875 9.94317 0.361291
2 1.09575 1.32099 0.433941
2 7.77211 7.83355 0.530215
2 6.49829 8.82268 1.22241
2 8.49886 6.75043 1.57148
1 4.36414 2.26038 1.83881
2 9.89769 1.24396 0.463946
