175
Atoms. Timestep: 10000000
C 0 0 -8.7192
C 2.1798 0 -6.5394
C 0 2.1798 -6.5394
C 2.1798 2.1798 -8.7192
Si 1.0899 1.0899 -7.6293
Si 3.2697 1.0899 -5.4495
Si 1.0899 3.2697 -5.4495
Si 3.2697 3.2697 -7.6293
C 4.3596 0 -8.7192
C 6.5394 0 -6.5394
C 4.3596 2.1798 -6.5394
C 6.5394 2.1798 -8.7192
Si 5.4495 1.0899 -7.6293
Si 7.6293 1.0899 -5.4495
Si 5.4495 3.2697 -5.4495
Si 7.6293 3.2697 -7.6293
C 8.7192 0 -8.7192
C 10.899 0 -6.5394
C 8.7192 2.1798 -6.5394
C 10.899 2.1798 -8.7192
Si 9.8091 1.0899 -7.6293
Si 11.9889 1.0899 -5.4495
Si 9.8091 3.2697 -5.4495
Si 11.9889 3.2697 -7.6293
C 0 4.3596 -8.7192
C 2.1798 4.3596 -6.5394
C 0 6.5394 -6.5394
C 2.1798 6.5394 -8.7192
Si 1.0899 5.4495 -7.6293
Si 3.2697 5.4495 -5.4495
Si 1.0899 7.6293 -5.4495
Si 3.2697 7.6293 -7.6293
C 4.3596 4.3596 -8.7192
C 6.5394 4.3596 -6.5394
C 4.3596 6.5394 -6.5394
C 6.5394 6.5394 -8.7192
Si 5.4495 5.4495 -7.6293
Si 7.6293 5.4495 -5.4495
Si 5.4495 7.6293 -5.4495
Si 7.6293 7.6293 -7.6293
C 8.7192 4.3596 -8.7192
C 10.899 4.3596 -6.5394
C 8.7192 6.5394 -6.5394
C 10.899 6.5394 -8.7192
Si 9.8091 5.4495 -7.6293
Si 11.9889 5.4495 -5.4495
Si 9.8091 7.6293 -5.4495
Si 11.9889 7.6293 -7.6293
C 0 8.7192 -8.7192
C 2.1798 8.7192 -6.5394
C 0 10.899 -6.5394
C 2.1798 10.899 -8.7192
Si 1.0899 9.8091 -7.6293
Si 3.2697 9.8091 -5.4495
Si 1.0899 11.9889 -5.4495
Si 3.2697 11.9889 -7.6293
C 4.3596 8.7192 -8.7192
C 6.5394 8.7192 -6.5394
C 4.3596 10.899 -6.5394
C 6.5394 10.899 -8.7192
Si 5.4495 9.8091 -7.6293
Si 7.6293 9.8091 -5.4495
Si 5.4495 11.9889 -5.4495
Si 7.6293 11.9889 -7.6293
C 8.7192 8.7192 -8.7192
C 10.899 8.7192 -6.5394
C 8.7192 10.899 -6.5394
C 10.899 10.899 -8.7192
Si 9.8091 9.8091 -7.6293
Si 11.9889 9.8091 -5.4495
Si 9.8091 11.9889 -5.4495
Si 11.9889 11.9889 -7.6293
C 2.26058 0.00689825 -2.10985
C 0.0248137 2.20622 -2.08629
Si 1.1055 1.1858 -3.19996
Si 3.36151 1.16152 -0.991244
Si 1.18622 3.31952 -1.04393
Si 3.30813 3.29166 -3.30084
C 2.1798 2.1798 -4.3596
C 0 0 -4.3596
C 6.49254 -0.00180172 -2.19453
C 4.40186 2.20663 -2.17991
Si 5.44784 1.10397 -3.31454
Si 7.6123 1.11935 -1.15546
Si 5.4829 3.31128 -1.07232
Si 7.61722 3.32441 -3.2936
C 6.5394 2.1798 -4.3596
C 4.3596 0 -4.3596
C 10.9271 0.00506398 -2.25664
C 8.77225 2.24709 -2.26668
Si 9.80396 1.06222 -3.25751
Si 11.987 1.08486 -1.05431
Si 9.85239 3.34573 -1.14166
Si 11.9943 3.30105 -3.27342
C 10.899 2.1798 -4.3596
C 8.7192 0 -4.3596
C 2.26069 4.3928 -2.20857
C 13.0451 6.55798 -2.23188
Si 1.12951 5.46131 -3.27465
Si 3.38354 5.43075 -1.07148
Si 1.12018 7.68416 -1.14605
Si 3.27616 7.63485 -3.27445
C 2.1798 6.5394 -4.3596
C 0 4.3596 -4.3596
C 6.5394 6.5394 -4.3596
C 6.51725 4.36883 -2.19378
C 4.37478 6.54378 -2.23115
C 4.3596 4.3596 -4.3596
Si 5.46448 5.47745 -3.2748
Si 7.5509 5.44712 -1.11123
Si 5.44423 7.63931 -1.05248
Si 7.59977 7.60758 -3.26624
C 10.899 6.5394 -4.3596
C 8.7192 4.3596 -4.3596
C 10.9351 4.39255 -2.16068
C 8.73248 6.528 -2.14358
Si 9.87128 5.47938 -3.2783
Si 11.9321 5.50807 -1.10064
Si 9.77975 7.57831 -0.9627
Si 12.0064 7.69109 -3.30853
C 2.1798 10.899 -4.3596
C 0 8.7192 -4.3596
C 2.19153 8.74488 -2.15973
C 0.0286866 10.9121 -2.08241
Si 1.14059 9.8193 -3.28412
Si 3.19393 9.90503 -0.906484
Si 1.02564 11.9827 -1.07475
Si 3.27839 12.0161 -3.27179
C 6.5394 10.899 -4.3596
C 4.3596 8.7192 -4.3596
C 6.56642 8.77098 -2.14804
C 4.34256 11.0152 -2.07515
Si 5.44539 9.94493 -3.21054
Si 7.66201 9.89012 -0.994285
Si 5.48343 12.1039 -0.960831
Si 7.70871 11.9786 -3.2751
C 10.899 10.899 -4.3596
C 8.7192 8.7192 -4.3596
C 10.8712 8.73327 -2.17831
C 8.77392 10.883 -2.20058
Si 9.81715 9.76025 -3.27859
Si 11.9707 9.79069 -0.944633
Si 9.85026 12.004 -1.14443
Si 12.0111 11.9843 -3.26315
C 12.8624 12.8563 -0.118771
C 2.61167 2.56754 -0.212702
C 4.09152 13.0322 0.107518
C 6.81072 2.37854 -0.137475
C 8.7154 13.0741 -0.163698
C 10.5447 1.83392 -0.386487
C 0.351052 4.69357 -0.26228
C 2.03091 6.26161 -0.287777
C 4.49876 4.41256 0.0404936
C 6.50121 6.54632 -0.00492709
C 8.48794 4.12228 -0.234292
C 11.1959 6.71103 -0.0455713
C 12.9112 8.48495 -0.153008
C 2.28369 11.2164 0.0335243
C 4.51539 8.936 -0.148738
C 6.89255 11.3065 -0.0706783
C 8.3651 8.37895 -0.14528
C 11.041 11.1502 -0.0435404
C 7.79829 3.14818 0.738276
C 9.5296 1.05252 0.462411
C 5.35108 5.72627 0.745371
C 1.20494 5.39166 0.820063
C 11.9286 11.9797 0.866633
C 8.89778 1.96854 1.62906
C 7.75681 12.2443 0.639984
C 3.12198 12.1174 0.867529
C 7.43826 7.58455 0.702383
C 12.2054 7.49195 0.686966
C 0.109342 6.68739 1.5372
C 3.47865 3.43843 0.720333
C 2.16203 4.37231 1.4693
