173
Atoms. Timestep: 10000000
C 0 0 -8.7192
C 2.1798 0 -6.5394
C 0 2.1798 -6.5394
C 2.1798 2.1798 -8.7192
Si 1.0899 1.0899 -7.6293
Si 3.2697 1.0899 -5.4495
Si 1.0899 3.2697 -5.4495
Si 3.2697 3.2697 -7.6293
C 4.3596 0 -8.7192
C 6.5394 0 -6.5394
C 4.3596 2.1798 -6.5394
C 6.5394 2.1798 -8.7192
Si 5.4495 1.0899 -7.6293
Si 7.6293 1.0899 -5.4495
Si 5.4495 3.2697 -5.4495
Si 7.6293 3.2697 -7.6293
C 8.7192 0 -8.7192
C 10.899 0 -6.5394
C 8.7192 2.1798 -6.5394
C 10.899 2.1798 -8.7192
Si 9.8091 1.0899 -7.6293
Si 11.9889 1.0899 -5.4495
Si 9.8091 3.2697 -5.4495
Si 11.9889 3.2697 -7.6293
C 0 4.3596 -8.7192
C 2.1798 4.3596 -6.5394
C 0 6.5394 -6.5394
C 2.1798 6.5394 -8.7192
Si 1.0899 5.4495 -7.6293
Si 3.2697 5.4495 -5.4495
Si 1.0899 7.6293 -5.4495
Si 3.2697 7.6293 -7.6293
C 4.3596 4.3596 -8.7192
C 6.5394 4.3596 -6.5394
C 4.3596 6.5394 -6.5394
C 6.5394 6.5394 -8.7192
Si 5.4495 5.4495 -7.6293
Si 7.6293 5.4495 -5.4495
Si 5.4495 7.6293 -5.4495
Si 7.6293 7.6293 -7.6293
C 8.7192 4.3596 -8.7192
C 10.899 4.3596 -6.5394
C 8.7192 6.5394 -6.5394
C 10.899 6.5394 -8.7192
Si 9.8091 5.4495 -7.6293
Si 11.9889 5.4495 -5.4495
Si 9.8091 7.6293 -5.4495
Si 11.9889 7.6293 -7.6293
C 0 8.7192 -8.7192
C 2.1798 8.7192 -6.5394
C 0 10.899 -6.5394
C 2.1798 10.899 -8.7192
Si 1.0899 9.8091 -7.6293
Si 3.2697 9.8091 -5.4495
Si 1.0899 11.9889 -5.4495
Si 3.2697 11.9889 -7.6293
C 4.3596 8.7192 -8.7192
C 6.5394 8.7192 -6.5394
C 4.3596 10.899 -6.5394
C 6.5394 10.899 -8.7192
Si 5.4495 9.8091 -7.6293
Si 7.6293 9.8091 -5.4495
Si 5.4495 11.9889 -5.4495
Si 7.6293 11.9889 -7.6293
C 8.7192 8.7192 -8.7192
C 10.899 8.7192 -6.5394
C 8.7192 10.899 -6.5394
C 10.899 10.899 -8.7192
Si 9.8091 9.8091 -7.6293
Si 11.9889 9.8091 -5.4495
Si 9.8091 11.9889 -5.4495
Si 11.9889 11.9889 -7.6293
C 2.32102 0.0751047 -2.19114
C 0.0873359 2.13605 -2.16045
Si 1.14328 1.03589 -3.27363
Si 3.38569 1.00703 -1.0854
Si 1.23208 3.22461 -1.05847
Si 3.26722 3.24505 -3.33517
C 2.1798 2.1798 -4.3596
C 0 0 -4.3596
C 6.49066 0.0112542 -2.25446
C 4.39753 2.08757 -2.23514
Si 5.48748 1.02073 -3.33843
Si 7.64576 1.03159 -1.17103
Si 5.44561 3.17956 -1.16681
Si 7.69663 3.3008 -3.21157
C 6.5394 2.1798 -4.3596
C 4.3596 0 -4.3596
C 10.9732 13.0345 -2.2085
C 8.7687 2.14183 -2.07702
Si 9.79729 1.13063 -3.26905
Si 12.1599 0.997128 -0.978388
Si 9.88309 3.24146 -1.047
Si 11.9906 3.24066 -3.28595
C 10.899 2.1798 -4.3596
C 8.7192 0 -4.3596
C 2.15999 4.42143 -2.2293
C 0.0537353 6.54328 -2.20204
Si 1.07082 5.51382 -3.24399
Si 3.37033 5.45738 -1.13766
Si 1.16657 7.62456 -1.10943
Si 3.28878 7.59463 -3.22932
C 2.1798 6.5394 -4.3596
C 0 4.3596 -4.3596
C 6.5394 6.5394 -4.3596
C 6.49326 4.31367 -2.17241
C 4.45834 6.52225 -2.30711
C 4.3596 4.3596 -4.3596
Si 5.47265 5.47366 -3.35273
Si 7.53085 5.38622 -1.09571
Si 5.45864 7.72595 -1.08595
Si 7.64627 7.70571 -3.26046
C 10.899 6.5394 -4.3596
C 8.7192 4.3596 -4.3596
C 11.002 4.34586 -2.19328
C 8.69101 6.47308 -2.19952
Si 9.82631 5.47505 -3.30327
Si 12.0457 5.43926 -1.10033
Si 9.82606 7.6066 -1.05261
Si 11.9909 7.6424 -3.28288
C 2.1798 10.899 -4.3596
C 0 8.7192 -4.3596
C 2.1998 8.7157 -2.2178
C 0.0329805 10.9711 -2.21733
Si 1.09607 9.74442 -3.28244
Si 3.28995 9.80701 -1.19342
Si 1.16429 11.9452 -1.04783
Si 3.27451 11.9432 -3.29098
C 6.5394 10.899 -4.3596
C 4.3596 8.7192 -4.3596
C 6.58687 8.73884 -2.18302
C 4.36431 10.8445 -2.21945
Si 5.42369 9.79962 -3.31454
Si 7.74581 9.75939 -1.05907
Si 5.52612 11.947 -1.16283
Si 7.62046 11.9356 -3.30758
C 10.899 10.899 -4.3596
C 8.7192 8.7192 -4.3596
C 10.899 8.73156 -2.20065
C 8.79971 10.8872 -2.25466
Si 9.8546 9.76806 -3.26929
Si 12.0314 9.77301 -1.02733
Si 9.9176 11.9544 -1.04823
Si 12.0108 12.0428 -3.26304
C 0.397169 0.286409 -0.0794501
C 2.35634 2.04378 0.0171116
C 4.3149 12.7573 -0.181331
C 6.5532 2.12822 -0.205601
C 8.5032 12.8752 -0.239802
C 11.0168 2.17811 -0.162863
C 0.457367 4.63348 -0.297743
C 2.23594 6.57106 -0.00953473
C 4.12608 3.9182 -0.368676
C 6.87904 6.86519 -0.108987
C 8.93159 4.57497 -0.150742
C 10.7543 6.33068 -0.1808
C 0.0283399 8.57361 -0.185978
C 2.48564 10.9874 -0.219079
C 4.06937 8.50554 -0.261283
C 6.85306 11.121 -0.242751
C 8.87708 8.70256 0.135055
C 10.7607 10.6092 -0.0734031
C 3.31677 3.12092 0.568967
C 1.38314 5.37297 0.608796
C 3.56163 11.6497 0.513803
Si 9.80533 5.37458 1.21747
C 2.3947 4.29836 1.20883
C 9.97601 9.63428 0.791268
C 7.68831 11.9781 0.482126
C 3.12173 7.76819 0.513371
C 1.37666 1.14515 0.689234
C 7.77521 7.66705 0.798541
C 8.6148 6.68664 1.86148
