177
Atoms. Timestep: 10000000
C 0 0 -8.7192
C 2.1798 0 -6.5394
C 0 2.1798 -6.5394
C 2.1798 2.1798 -8.7192
Si 1.0899 1.0899 -7.6293
Si 3.2697 1.0899 -5.4495
Si 1.0899 3.2697 -5.4495
Si 3.2697 3.2697 -7.6293
C 4.3596 0 -8.7192
C 6.5394 0 -6.5394
C 4.3596 2.1798 -6.5394
C 6.5394 2.1798 -8.7192
Si 5.4495 1.0899 -7.6293
Si 7.6293 1.0899 -5.4495
Si 5.4495 3.2697 -5.4495
Si 7.6293 3.2697 -7.6293
C 8.7192 0 -8.7192
C 10.899 0 -6.5394
C 8.7192 2.1798 -6.5394
C 10.899 2.1798 -8.7192
Si 9.8091 1.0899 -7.6293
Si 11.9889 1.0899 -5.4495
Si 9.8091 3.2697 -5.4495
Si 11.9889 3.2697 -7.6293
C 0 4.3596 -8.7192
C 2.1798 4.3596 -6.5394
C 0 6.5394 -6.5394
C 2.1798 6.5394 -8.7192
Si 1.0899 5.4495 -7.6293
Si 3.2697 5.4495 -5.4495
Si 1.0899 7.6293 -5.4495
Si 3.2697 7.6293 -7.6293
C 4.3596 4.3596 -8.7192
C 6.5394 4.3596 -6.5394
C 4.3596 6.5394 -6.5394
C 6.5394 6.5394 -8.7192
Si 5.4495 5.4495 -7.6293
Si 7.6293 5.4495 -5.4495
Si 5.4495 7.6293 -5.4495
Si 7.6293 7.6293 -7.6293
C 8.7192 4.3596 -8.7192
C 10.899 4.3596 -6.5394
C 8.7192 6.5394 -6.5394
C 10.899 6.5394 -8.7192
Si 9.8091 5.4495 -7.6293
Si 11.9889 5.4495 -5.4495
Si 9.8091 7.6293 -5.4495
Si 11.9889 7.6293 -7.6293
C 0 8.7192 -8.7192
C 2.1798 8.7192 -6.5394
C 0 10.899 -6.5394
C 2.1798 10.899 -8.7192
Si 1.0899 9.8091 -7.6293
Si 3.2697 9.8091 -5.4495
Si 1.0899 11.9889 -5.4495
Si 3.2697 11.9889 -7.6293
C 4.3596 8.7192 -8.7192
C 6.5394 8.7192 -6.5394
C 4.3596 10.899 -6.5394
C 6.5394 10.899 -8.7192
Si 5.4495 9.8091 -7.6293
Si 7.6293 9.8091 -5.4495
Si 5.4495 11.9889 -5.4495
Si 7.6293 11.9889 -7.6293
C 8.7192 8.7192 -8.7192
C 10.899 8.7192 -6.5394
C 8.7192 10.899 -6.5394
C 10.899 10.899 -8.7192
Si 9.8091 9.8091 -7.6293
Si 11.9889 9.8091 -5.4495
Si 9.8091 11.9889 -5.4495
Si 11.9889 11.9889 -7.6293
C 2.26264 0.0398392 -2.18497
C 12.9441 2.18815 -2.17893
Si 1.04392 1.10297 -3.29622
Si 3.23332 1.06471 -1.00573
Si 1.07864 3.18275 -1.1401
Si 3.27148 3.24339 -3.31281
C 2.1798 2.1798 -4.3596
C 0 0 -4.3596
C 6.47706 0.036317 -2.30042
C 4.33753 2.19772 -2.12922
Si 5.36713 1.11994 -3.29989
Si 7.67438 1.11905 -1.22266
Si 5.48128 3.36271 -1.14983
Si 7.60934 3.29407 -3.29677
C 6.5394 2.1798 -4.3596
C 4.3596 0 -4.3596
C 10.8492 0.000556879 -2.25122
C 8.72463 2.18835 -2.26359
Si 9.81575 1.11246 -3.32563
Si 11.9077 1.04629 -1.08735
Si 9.81415 3.25378 -1.19369
Si 11.991 3.26113 -3.28691
C 10.899 2.1798 -4.3596
C 8.7192 0 -4.3596
C 2.17104 4.28546 -2.18481
C 0.0940862 6.43307 -2.26296
Si 1.12083 5.38587 -3.26116
Si 3.27452 5.43616 -1.18606
Si 1.10691 7.65796 -1.22152
Si 3.24374 7.57399 -3.30089
C 2.1798 6.5394 -4.3596
C 0 4.3596 -4.3596
C 6.5394 6.5394 -4.3596
C 6.56813 4.46391 -2.12462
C 4.31507 6.52284 -2.24992
C 4.3596 4.3596 -4.3596
Si 5.4822 5.45383 -3.35682
Si 7.63201 5.484 -1.02993
Si 5.44497 7.61238 -1.2345
Si 7.67063 7.65345 -3.29917
C 10.899 6.5394 -4.3596
C 8.7192 4.3596 -4.3596
C 10.9073 4.3335 -2.1584
C 8.69857 6.57794 -2.13825
Si 9.78915 5.48044 -3.21871
Si 12.032 5.46986 -1.14834
Si 9.85529 7.64813 -1.12656
Si 12.0227 7.64523 -3.35723
C 2.1798 10.899 -4.3596
C 0 8.7192 -4.3596
C 2.18331 8.73875 -2.24297
C 12.999 10.9571 -2.22121
Si 1.05252 9.84894 -3.27947
Si 3.32761 9.80741 -1.15466
Si 1.07948 12.0455 -1.2052
Si 3.2783 12.0495 -3.31408
C 6.5394 10.899 -4.3596
C 4.3596 8.7192 -4.3596
C 6.57415 8.75792 -2.26984
C 4.37626 10.9121 -2.16343
Si 5.49453 9.78573 -3.29285
Si 7.60592 9.90177 -1.10804
Si 5.43675 12.0831 -1.14076
Si 7.60532 11.9915 -3.35647
C 10.899 10.899 -4.3596
C 8.7192 8.7192 -4.3596
C 10.864 8.7939 -2.19419
C 8.74445 10.9125 -2.25091
Si 9.76262 9.83099 -3.28441
Si 11.9679 9.83373 -1.14356
Si 9.78764 11.9944 -1.10115
Si 11.9638 12.0275 -3.33172
C 0.13432 0.191457 -0.0383116
C 1.86942 1.94642 -0.0368424
C 4.74295 0.470744 -0.339816
C 6.64253 2.32274 -0.0845952
C 8.64294 0.0356368 -0.160325
C 10.4476 1.81199 -0.394942
C 0.398965 4.65312 -0.310096
C 2.15094 6.60065 -0.121843
C 4.5535 4.66167 -0.156961
C 6.24494 6.44496 -0.213778
C 8.54533 4.02341 -0.20216
C 11.2854 6.82822 -0.334771
C 0.0655121 8.74043 -0.175
C 1.89561 10.653 -0.426004
C 4.13592 8.33685 -0.402326
C 6.86379 11.3585 -0.33953
C 8.99916 9.01603 -0.0979972
C 10.7823 10.7961 -0.0863052
C 7.79829 3.14818 0.738276
C 9.5296 1.05252 0.462411
C 12.112 7.64756 0.426717
C 5.35108 5.72627 0.745371
C 3.45554 7.40477 0.423281
Si 8.92425 2.14442 1.7729
C 9.97213 9.88484 0.651286
C 1.03166 9.78131 0.377334
C 4.39009 6.71152 1.64254
C 7.56771 12.2715 0.548686
C 0.950217 1.08757 0.740925
C 5.66053 1.34435 0.553697
C 6.47443 0.0985814 1.59293
C 7.40441 1.15466 2.65904
C 1.26953 5.42821 0.45635
