175
Atoms. Timestep: 10000000
C 0 0 -8.7192
C 2.1798 0 -6.5394
C 0 2.1798 -6.5394
C 2.1798 2.1798 -8.7192
Si 1.0899 1.0899 -7.6293
Si 3.2697 1.0899 -5.4495
Si 1.0899 3.2697 -5.4495
Si 3.2697 3.2697 -7.6293
C 4.3596 0 -8.7192
C 6.5394 0 -6.5394
C 4.3596 2.1798 -6.5394
C 6.5394 2.1798 -8.7192
Si 5.4495 1.0899 -7.6293
Si 7.6293 1.0899 -5.4495
Si 5.4495 3.2697 -5.4495
Si 7.6293 3.2697 -7.6293
C 8.7192 0 -8.7192
C 10.899 0 -6.5394
C 8.7192 2.1798 -6.5394
C 10.899 2.1798 -8.7192
Si 9.8091 1.0899 -7.6293
Si 11.9889 1.0899 -5.4495
Si 9.8091 3.2697 -5.4495
Si 11.9889 3.2697 -7.6293
C 0 4.3596 -8.7192
C 2.1798 4.3596 -6.5394
C 0 6.5394 -6.5394
C 2.1798 6.5394 -8.7192
Si 1.0899 5.4495 -7.6293
Si 3.2697 5.4495 -5.4495
Si 1.0899 7.6293 -5.4495
Si 3.2697 7.6293 -7.6293
C 4.3596 4.3596 -8.7192
C 6.5394 4.3596 -6.5394
C 4.3596 6.5394 -6.5394
C 6.5394 6.5394 -8.7192
Si 5.4495 5.4495 -7.6293
Si 7.6293 5.4495 -5.4495
Si 5.4495 7.6293 -5.4495
Si 7.6293 7.6293 -7.6293
C 8.7192 4.3596 -8.7192
C 10.899 4.3596 -6.5394
C 8.7192 6.5394 -6.5394
C 10.899 6.5394 -8.7192
Si 9.8091 5.4495 -7.6293
Si 11.9889 5.4495 -5.4495
Si 9.8091 7.6293 -5.4495
Si 11.9889 7.6293 -7.6293
C 0 8.7192 -8.7192
C 2.1798 8.7192 -6.5394
C 0 10.899 -6.5394
C 2.1798 10.899 -8.7192
Si 1.0899 9.8091 -7.6293
Si 3.2697 9.8091 -5.4495
Si 1.0899 11.9889 -5.4495
Si 3.2697 11.9889 -7.6293
C 4.3596 8.7192 -8.7192
C 6.5394 8.7192 -6.5394
C 4.3596 10.899 -6.5394
C 6.5394 10.899 -8.7192
Si 5.4495 9.8091 -7.6293
Si 7.6293 9.8091 -5.4495
Si 5.4495 11.9889 -5.4495
Si 7.6293 11.9889 -7.6293
C 8.7192 8.7192 -8.7192
C 10.899 8.7192 -6.5394
C 8.7192 10.899 -6.5394
C 10.899 10.899 -8.7192
Si 9.8091 9.8091 -7.6293
Si 11.9889 9.8091 -5.4495
Si 9.8091 11.9889 -5.4495
Si 11.9889 11.9889 -7.6293
C 2.22037 13.0363 -2.23672
C 13.0365 2.1551 -2.26209
Si 1.0979 1.0755 -3.24217
Si 3.2475 1.19104 -1.15559
Si 1.03685 3.33663 -1.23783
Si 3.27392 3.28886 -3.31851
C 2.1798 2.1798 -4.3596
C 0 0 -4.3596
C 6.58371 0.0410316 -2.09195
C 4.36613 2.26368 -2.15602
Si 5.41686 1.05789 -3.28907
Si 7.66688 1.14308 -1.11972
Si 5.40132 3.33564 -1.1333
Si 7.67492 3.28383 -3.31212
C 6.5394 2.1798 -4.3596
C 4.3596 0 -4.3596
C 10.856 13.0301 -2.23159
C 8.76683 2.22691 -2.24314
Si 9.76061 1.13573 -3.2519
Si 11.9309 1.13656 -1.14772
Si 9.81291 3.40093 -1.09964
Si 11.8967 3.2911 -3.29692
C 10.899 2.1798 -4.3596
C 8.7192 0 -4.3596
C 2.23599 4.38081 -2.21418
C 0.00303668 6.54423 -2.17558
Si 1.11901 5.48261 -3.31503
Si 3.21009 5.52733 -1.151
Si 1.00776 7.60042 -1.05591
Si 3.1828 7.67564 -3.33161
C 2.1798 6.5394 -4.3596
C 0 4.3596 -4.3596
C 6.5394 6.5394 -4.3596
C 6.5175 4.37463 -2.26037
C 4.28917 6.50423 -2.1956
C 4.3596 4.3596 -4.3596
Si 5.40584 5.45867 -3.31966
Si 7.59092 5.50604 -1.21391
Si 5.39238 7.60336 -1.23213
Si 7.61644 7.68376 -3.34048
C 10.899 6.5394 -4.3596
C 8.7192 4.3596 -4.3596
C 10.8888 4.42507 -2.11877
C 8.62488 6.63535 -2.21802
Si 9.86304 5.49476 -3.23295
Si 11.9474 5.50131 -1.10265
Si 9.68318 7.67078 -1.09241
Si 11.9909 7.63751 -3.24159
C 2.1798 10.899 -4.3596
C 0 8.7192 -4.3596
C 1.9877 8.75326 -2.23772
C 13.0083 10.974 -2.1662
Si 1.01123 9.83179 -3.29005
Si 3.14588 9.82728 -1.18458
Si 1.06099 12.0672 -1.07389
Si 3.27286 11.9668 -3.28286
C 6.5394 10.899 -4.3596
C 4.3596 8.7192 -4.3596
C 6.51541 8.70576 -2.27555
C 4.3376 10.809 -2.24135
Si 5.40576 9.82183 -3.29854
Si 7.50684 9.81102 -1.14254
Si 5.36806 12.0643 -1.063
Si 7.63824 12.0141 -3.2786
C 10.899 10.899 -4.3596
C 8.7192 8.7192 -4.3596
C 10.8786 8.65809 -2.26316
C 8.65749 10.899 -2.15044
Si 9.76833 9.76098 -3.26483
Si 11.9195 9.87094 -1.04909
Si 9.72332 12.0221 -1.04537
Si 11.9407 12.0114 -3.30413
C 0.116307 0.346976 -0.248664
C 1.85609 2.0971 -0.394658
C 4.1105 12.9523 -0.190208
C 6.76799 2.51464 -0.349591
C 8.95929 0.320742 -0.143279
C 10.653 2.05673 -0.13463
C 0.319122 4.74221 -0.422373
C 2.18306 6.65254 -0.0730423
C 4.51356 4.62558 -0.238308
C 6.37041 6.39162 -0.2747
C 8.46361 4.29119 -0.194965
C 11.0027 6.81579 -0.150177
C 12.7717 8.45505 -0.0415267
C 2.42635 11.1911 -0.177753
C 4.0434 8.47632 -0.286673
C 6.4044 10.8959 -0.209287
C 8.78688 9.02423 -0.217811
C 10.5328 10.7368 -0.175836
C 3.35283 7.50828 0.603677
Si 3.21536 12.0264 1.13078
C 9.59005 9.88717 0.701544
C 9.81676 1.13971 0.770793
C 1.01326 1.33111 0.497527
C 11.7424 7.73008 0.769698
C 1.73613 0.40284 1.5049
Si 5.47091 5.57611 1.05863
C 4.48037 6.9341 1.81012
C 10.5433 8.91919 1.45026
C 7.5524 3.44075 0.54035
C 6.67076 3.92022 1.82101
C 1.15748 5.52937 0.444071
