177
Atoms. Timestep: 10000000
C 0 0 -8.7192
C 2.1798 0 -6.5394
C 0 2.1798 -6.5394
C 2.1798 2.1798 -8.7192
Si 1.0899 1.0899 -7.6293
Si 3.2697 1.0899 -5.4495
Si 1.0899 3.2697 -5.4495
Si 3.2697 3.2697 -7.6293
C 4.3596 0 -8.7192
C 6.5394 0 -6.5394
C 4.3596 2.1798 -6.5394
C 6.5394 2.1798 -8.7192
Si 5.4495 1.0899 -7.6293
Si 7.6293 1.0899 -5.4495
Si 5.4495 3.2697 -5.4495
Si 7.6293 3.2697 -7.6293
C 8.7192 0 -8.7192
C 10.899 0 -6.5394
C 8.7192 2.1798 -6.5394
C 10.899 2.1798 -8.7192
Si 9.8091 1.0899 -7.6293
Si 11.9889 1.0899 -5.4495
Si 9.8091 3.2697 -5.4495
Si 11.9889 3.2697 -7.6293
C 0 4.3596 -8.7192
C 2.1798 4.3596 -6.5394
C 0 6.5394 -6.5394
C 2.1798 6.5394 -8.7192
Si 1.0899 5.4495 -7.6293
Si 3.2697 5.4495 -5.4495
Si 1.0899 7.6293 -5.4495
Si 3.2697 7.6293 -7.6293
C 4.3596 4.3596 -8.7192
C 6.5394 4.3596 -6.5394
C 4.3596 6.5394 -6.5394
C 6.5394 6.5394 -8.7192
Si 5.4495 5.4495 -7.6293
Si 7.6293 5.4495 -5.4495
Si 5.4495 7.6293 -5.4495
Si 7.6293 7.6293 -7.6293
C 8.7192 4.3596 -8.7192
C 10.899 4.3596 -6.5394
C 8.7192 6.5394 -6.5394
C 10.899 6.5394 -8.7192
Si 9.8091 5.4495 -7.6293
Si 11.9889 5.4495 -5.4495
Si 9.8091 7.6293 -5.4495
Si 11.9889 7.6293 -7.6293
C 0 8.7192 -8.7192
C 2.1798 8.7192 -6.5394
C 0 10.899 -6.5394
C 2.1798 10.899 -8.7192
Si 1.0899 9.8091 -7.6293
Si 3.2697 9.8091 -5.4495
Si 1.0899 11.9889 -5.4495
Si 3.2697 11.9889 -7.6293
C 4.3596 8.7192 -8.7192
C 6.5394 8.7192 -6.5394
C 4.3596 10.899 -6.5394
C 6.5394 10.899 -8.7192
Si 5.4495 9.8091 -7.6293
Si 7.6293 9.8091 -5.4495
Si 5.4495 11.9889 -5.4495
Si 7.6293 11.9889 -7.6293
C 8.7192 8.7192 -8.7192
C 10.899 8.7192 -6.5394
C 8.7192 10.899 -6.5394
C 10.899 10.899 -8.7192
Si 9.8091 9.8091 -7.6293
Si 11.9889 9.8091 -5.4495
Si 9.8091 11.9889 -5.4495
Si 11.9889 11.9889 -7.6293
C 2.18525 0.0611039 -2.25666
C 13.0481 2.16172 -2.32193
Si 1.11913 1.06604 -3.3245
Si 3.23792 1.12925 -1.16328
Si 1.04515 3.27247 -1.16682
Si 3.27566 3.33682 -3.29847
C 2.1798 2.1798 -4.3596
C 0 0 -4.3596
C 6.58919 12.9898 -2.26899
C 4.37987 2.18637 -2.23272
Si 5.4686 1.08194 -3.27436
Si 7.64832 1.08496 -1.13787
Si 5.44597 3.32524 -1.08781
Si 7.55907 3.2724 -3.29562
C 6.5394 2.1798 -4.3596
C 4.3596 0 -4.3596
C 10.8773 0.0554461 -2.30567
C 8.64639 2.2066 -2.22344
Si 9.76982 1.09498 -3.27918
Si 11.952 1.11681 -1.22688
Si 9.72568 3.26805 -1.15811
Si 11.9591 3.3556 -3.29132
C 10.899 2.1798 -4.3596
C 8.7192 0 -4.3596
C 2.10506 4.39515 -2.17157
C 0.0318346 6.59721 -2.18847
Si 1.06353 5.56371 -3.29502
Si 3.29498 5.47238 -1.03429
Si 1.12065 7.71461 -1.13332
Si 3.23938 7.63109 -3.24082
C 2.1798 6.5394 -4.3596
C 0 4.3596 -4.3596
C 6.5394 6.5394 -4.3596
C 6.54586 4.42096 -2.16493
C 4.36045 6.54362 -2.13239
C 4.3596 4.3596 -4.3596
Si 5.41786 5.51377 -3.21811
Si 7.58356 5.50906 -1.04075
Si 5.35331 7.67698 -1.06418
Si 7.6268 7.68379 -3.2669
C 10.899 6.5394 -4.3596
C 8.7192 4.3596 -4.3596
C 10.8861 4.48481 -2.21807
C 8.73136 6.60549 -2.13884
Si 9.78673 5.54072 -3.28497
Si 12.0061 5.54367 -1.09318
Si 9.77653 7.70613 -1.07021
Si 11.9748 7.64475 -3.24671
C 2.1798 10.899 -4.3596
C 0 8.7192 -4.3596
C 2.16789 8.82837 -2.19986
C 13.06 10.8391 -2.30974
Si 1.14001 9.84223 -3.33103
Si 3.2324 9.86881 -1.05271
Si 1.08066 12.0489 -1.18582
Si 3.30161 11.9615 -3.35182
C 6.5394 10.899 -4.3596
C 4.3596 8.7192 -4.3596
C 6.43623 8.76413 -2.1863
C 4.30012 10.913 -2.1551
Si 5.38054 9.82188 -3.24716
Si 7.62025 9.84945 -1.217
Si 5.49069 11.9534 -1.10422
Si 7.62683 12.0279 -3.34328
C 10.899 10.899 -4.3596
C 8.7192 8.7192 -4.3596
C 10.7833 8.72653 -2.2242
C 8.71884 10.9077 -2.27847
Si 9.76816 9.77754 -3.36122
Si 11.8969 9.86862 -1.24748
Si 9.73112 11.9618 -1.22193
Si 11.9404 11.9853 -3.33423
C 12.7024 12.8469 -0.444163
C 2.36579 2.38418 -0.315937
C 4.79144 0.445564 -0.329702
C 6.38561 1.9984 -0.196884
C 8.45953 12.7937 -0.243964
C 11.1681 2.41755 -0.372507
C 12.8929 4.14258 -0.316047
C 2.33982 6.85082 -0.137185
C 4.11604 4.0758 -0.169272
C 6.7025 6.99389 -0.131969
C 8.89023 4.5693 -0.171683
C 10.6911 6.35305 -0.111939
C 0.0981972 9.07027 -0.238423
C 1.91556 10.8463 -0.202779
C 4.14659 8.54198 -0.0915886
C 6.77705 11.0708 -0.276747
C 8.47905 8.6209 -0.259788
C 11.0004 11.2009 -0.389789
C 3.31677 3.12092 0.568967
C 11.925 3.31156 0.367295
C 3.15363 7.80944 0.69189
C 5.53212 1.17861 0.724019
Si 9.80533 5.37458 1.21747
C 11.9154 12.0123 0.371958
C 4.24195 1.97709 1.5609
C 7.61492 7.89037 0.658347
C 10.8426 3.96766 1.41271
C 8.46773 6.71386 1.64183
C 7.64551 11.9797 0.569177
Si 0.81924 10.0662 1.06022
C 12.5324 11.2 1.60206
C 2.54672 8.93945 1.79703
C 6.37014 12.9252 1.3424
