175
Atoms. Timestep: 10000000
4 0 0 -8.7192
4 2.1798 0 -6.5394
4 0 2.1798 -6.5394
4 2.1798 2.1798 -8.7192
3 1.0899 1.0899 -7.6293
3 3.2697 1.0899 -5.4495
3 1.0899 3.2697 -5.4495
3 3.2697 3.2697 -7.6293
4 4.3596 0 -8.7192
4 6.5394 0 -6.5394
4 4.3596 2.1798 -6.5394
4 6.5394 2.1798 -8.7192
3 5.4495 1.0899 -7.6293
3 7.6293 1.0899 -5.4495
3 5.4495 3.2697 -5.4495
3 7.6293 3.2697 -7.6293
4 8.7192 0 -8.7192
4 10.899 0 -6.5394
4 8.7192 2.1798 -6.5394
4 10.899 2.1798 -8.7192
3 9.8091 1.0899 -7.6293
3 11.9889 1.0899 -5.4495
3 9.8091 3.2697 -5.4495
3 11.9889 3.2697 -7.6293
4 0 4.3596 -8.7192
4 2.1798 4.3596 -6.5394
4 0 6.5394 -6.5394
4 2.1798 6.5394 -8.7192
3 1.0899 5.4495 -7.6293
3 3.2697 5.4495 -5.4495
3 1.0899 7.6293 -5.4495
3 3.2697 7.6293 -7.6293
4 4.3596 4.3596 -8.7192
4 6.5394 4.3596 -6.5394
4 4.3596 6.5394 -6.5394
4 6.5394 6.5394 -8.7192
3 5.4495 5.4495 -7.6293
3 7.6293 5.4495 -5.4495
3 5.4495 7.6293 -5.4495
3 7.6293 7.6293 -7.6293
4 8.7192 4.3596 -8.7192
4 10.899 4.3596 -6.5394
4 8.7192 6.5394 -6.5394
4 10.899 6.5394 -8.7192
3 9.8091 5.4495 -7.6293
3 11.9889 5.4495 -5.4495
3 9.8091 7.6293 -5.4495
3 11.9889 7.6293 -7.6293
4 0 8.7192 -8.7192
4 2.1798 8.7192 -6.5394
4 0 10.899 -6.5394
4 2.1798 10.899 -8.7192
3 1.0899 9.8091 -7.6293
3 3.2697 9.8091 -5.4495
3 1.0899 11.9889 -5.4495
3 3.2697 11.9889 -7.6293
4 4.3596 8.7192 -8.7192
4 6.5394 8.7192 -6.5394
4 4.3596 10.899 -6.5394
4 6.5394 10.899 -8.7192
3 5.4495 9.8091 -7.6293
3 7.6293 9.8091 -5.4495
3 5.4495 11.9889 -5.4495
3 7.6293 11.9889 -7.6293
4 8.7192 8.7192 -8.7192
4 10.899 8.7192 -6.5394
4 8.7192 10.899 -6.5394
4 10.899 10.899 -8.7192
3 9.8091 9.8091 -7.6293
3 11.9889 9.8091 -5.4495
3 9.8091 11.9889 -5.4495
3 11.9889 11.9889 -7.6293
2 2.21689 12.9884 -2.16755
2 0.0250335 2.15845 -2.10895
1 1.0299 1.06327 -3.22882
1 3.3577 1.03119 -1.08469
1 1.05532 3.17541 -0.950833
1 3.29514 3.22996 -3.23904
4 2.1798 2.1798 -4.3596
4 0 0 -4.3596
2 6.61615 0.0110398 -2.18828
2 4.42404 2.19269 -2.14633
1 5.44569 1.07095 -3.21426
1 7.66167 1.05626 -1.04492
1 5.634 3.26643 -0.987824
1 7.61751 3.29754 -3.24288
4 6.5394 2.1798 -4.3596
4 4.3596 0 -4.3596
2 10.8863 0.0203815 -2.20808
2 8.75697 2.25389 -2.16471
1 9.81911 1.11705 -3.25523
1 11.9965 1.07233 -1.06628
1 9.82933 3.31637 -1.12455
1 11.9652 3.23748 -3.26223
4 10.899 2.1798 -4.3596
4 8.7192 0 -4.3596
2 2.2006 4.27784 -2.13365
2 0.120663 6.62578 -2.28081
1 1.16279 5.42081 -3.25224
1 3.34227 5.39911 -1.176
1 1.19561 7.63329 -1.19894
1 3.2533 7.64341 -3.34563
4 2.1798 6.5394 -4.3596
4 0 4.3596 -4.3596
4 6.5394 6.5394 -4.3596
2 6.54803 4.40159 -2.17879
2 4.34221 6.55978 -2.31577
4 4.3596 4.3596 -4.3596
1 5.47044 5.44641 -3.32733
1 7.66044 5.46219 -1.06251
1 5.50671 7.65649 -1.17093
1 7.63857 7.63118 -3.28682
4 10.899 6.5394 -4.3596
4 8.7192 4.3596 -4.3596
2 10.9374 4.32577 -2.18566
2 8.76271 6.50989 -2.17962
1 9.81058 5.49699 -3.24721
1 12.0349 5.45997 -1.21312
1 9.84744 7.62066 -1.13462
1 11.9753 7.66258 -3.2988
4 2.1798 10.899 -4.3596
4 0 8.7192 -4.3596
2 2.24064 8.78646 -2.2688
2 0.0820021 10.8597 -2.23022
1 1.12084 9.79285 -3.31673
1 3.36747 9.80391 -1.09269
1 1.10397 11.9206 -1.08751
1 3.3918 11.9767 -3.26818
4 6.5394 10.899 -4.3596
4 4.3596 8.7192 -4.3596
2 6.56052 8.73626 -2.24215
2 4.4766 10.8916 -2.14677
1 5.42901 9.77246 -3.30854
1 7.60688 9.78493 -1.16384
1 5.54118 11.9878 -1.11483
1 7.62374 11.9935 -3.3499
4 10.899 10.899 -4.3596
4 8.7192 8.7192 -4.3596
2 10.9198 8.72642 -2.19776
2 8.72829 10.9368 -2.19676
1 9.78754 9.84729 -3.29709
1 12.1311 9.78126 -1.16497
1 9.82816 11.9186 -1.08907
1 12.0157 11.9894 -3.29672
2 0.23721 0.154868 -0.20406
2 1.98614 1.82634 -0.11125
2 4.33029 12.9301 -0.116589
2 6.80748 2.27133 0.0787924
2 8.58691 12.8476 -0.15492
2 11.0407 2.43231 -0.171085
2 12.8316 4.18663 -0.103577
2 2.43672 6.69752 -0.340426
2 4.72785 4.6595 -0.210101
2 6.37945 6.4405 -0.200463
2 8.55053 4.11772 -0.0792569
2 11.3044 6.78943 -0.381388
2 12.9887 8.48061 -0.289928
2 2.47734 11.1222 -0.178046
2 4.30411 8.41986 -0.26577
2 6.82949 11.1202 -0.1991
2 8.93432 8.94261 -0.317162
2 10.7257 10.5621 -0.321494
2 7.79829 3.14818 0.738276
1 3.41146 11.9649 1.206
2 12.112 7.64756 0.426717
2 11.7639 3.40808 0.635824
2 3.45554 7.40477 0.423281
2 9.82893 9.66538 0.557974
2 5.53784 5.67412 0.587007
2 1.32372 0.80352 0.595478
2 2.13219 12.8101 1.46366
2 4.22121 6.47493 1.34361
1 7.68753 11.8755 1.26506
2 9.21426 11.0031 1.49388
2 10.9852 8.51141 1.22346
