176
Atoms. Timestep: 10000000
4 0 0 -8.7192
4 2.1798 0 -6.5394
4 0 2.1798 -6.5394
4 2.1798 2.1798 -8.7192
3 1.0899 1.0899 -7.6293
3 3.2697 1.0899 -5.4495
3 1.0899 3.2697 -5.4495
3 3.2697 3.2697 -7.6293
4 4.3596 0 -8.7192
4 6.5394 0 -6.5394
4 4.3596 2.1798 -6.5394
4 6.5394 2.1798 -8.7192
3 5.4495 1.0899 -7.6293
3 7.6293 1.0899 -5.4495
3 5.4495 3.2697 -5.4495
3 7.6293 3.2697 -7.6293
4 8.7192 0 -8.7192
4 10.899 0 -6.5394
4 8.7192 2.1798 -6.5394
4 10.899 2.1798 -8.7192
3 9.8091 1.0899 -7.6293
3 11.9889 1.0899 -5.4495
3 9.8091 3.2697 -5.4495
3 11.9889 3.2697 -7.6293
4 0 4.3596 -8.7192
4 2.1798 4.3596 -6.5394
4 0 6.5394 -6.5394
4 2.1798 6.5394 -8.7192
3 1.0899 5.4495 -7.6293
3 3.2697 5.4495 -5.4495
3 1.0899 7.6293 -5.4495
3 3.2697 7.6293 -7.6293
4 4.3596 4.3596 -8.7192
4 6.5394 4.3596 -6.5394
4 4.3596 6.5394 -6.5394
4 6.5394 6.5394 -8.7192
3 5.4495 5.4495 -7.6293
3 7.6293 5.4495 -5.4495
3 5.4495 7.6293 -5.4495
3 7.6293 7.6293 -7.6293
4 8.7192 4.3596 -8.7192
4 10.899 4.3596 -6.5394
4 8.7192 6.5394 -6.5394
4 10.899 6.5394 -8.7192
3 9.8091 5.4495 -7.6293
3 11.9889 5.4495 -5.4495
3 9.8091 7.6293 -5.4495
3 11.9889 7.6293 -7.6293
4 0 8.7192 -8.7192
4 2.1798 8.7192 -6.5394
4 0 10.899 -6.5394
4 2.1798 10.899 -8.7192
3 1.0899 9.8091 -7.6293
3 3.2697 9.8091 -5.4495
3 1.0899 11.9889 -5.4495
3 3.2697 11.9889 -7.6293
4 4.3596 8.7192 -8.7192
4 6.5394 8.7192 -6.5394
4 4.3596 10.899 -6.5394
4 6.5394 10.899 -8.7192
3 5.4495 9.8091 -7.6293
3 7.6293 9.8091 -5.4495
3 5.4495 11.9889 -5.4495
3 7.6293 11.9889 -7.6293
4 8.7192 8.7192 -8.7192
4 10.899 8.7192 -6.5394
4 8.7192 10.899 -6.5394
4 10.899 10.899 -8.7192
3 9.8091 9.8091 -7.6293
3 11.9889 9.8091 -5.4495
3 9.8091 11.9889 -5.4495
3 11.9889 11.9889 -7.6293
2 2.12246 0.0583921 -2.18195
2 13.0452 2.24013 -2.07062
1 1.00156 1.10044 -3.22826
1 3.28477 1.05135 -1.13551
1 1.09469 3.29773 -1.03631
1 3.17923 3.26309 -3.22337
4 2.1798 2.1798 -4.3596
4 0 0 -4.3596
2 6.47929 0.0250457 -2.26747
2 4.33001 2.18234 -2.19959
1 5.42448 1.12408 -3.29192
1 7.60094 1.10263 -1.19388
1 5.36069 3.22964 -1.07514
1 7.64029 3.21452 -3.34582
4 6.5394 2.1798 -4.3596
4 4.3596 0 -4.3596
2 10.9144 0.0647426 -2.20736
2 8.75672 2.15881 -2.26396
1 9.8399 1.01499 -3.31464
1 11.9413 1.14712 -1.02518
1 9.82324 3.27189 -1.07025
1 12.0223 3.27383 -3.25128
4 10.899 2.1798 -4.3596
4 8.7192 0 -4.3596
2 2.13864 4.41437 -2.24416
2 13.0725 6.53937 -2.32564
1 1.0337 5.45622 -3.33323
1 3.25497 5.51962 -1.21043
1 1.09534 7.59807 -1.19322
1 3.28832 7.6585 -3.29145
4 2.1798 6.5394 -4.3596
4 0 4.3596 -4.3596
4 6.5394 6.5394 -4.3596
2 6.62187 4.34694 -2.20024
2 4.463 6.52605 -2.24845
4 4.3596 4.3596 -4.3596
1 5.49416 5.40781 -3.2834
1 7.66398 5.49556 -1.1696
1 5.48894 7.69882 -1.19084
1 7.59905 7.69929 -3.31079
4 10.899 6.5394 -4.3596
4 8.7192 4.3596 -4.3596
2 10.9921 4.39933 -2.24535
2 8.68542 6.61162 -2.20358
1 9.85339 5.45593 -3.32718
1 12.0217 5.49092 -1.12446
1 9.76768 7.64724 -1.07934
1 11.9371 7.64121 -3.30016
4 2.1798 10.899 -4.3596
4 0 8.7192 -4.3596
2 2.18017 8.75964 -2.17859
2 13.0371 10.8784 -2.24466
1 1.10785 9.80293 -3.27913
1 3.19362 9.87463 -1.0888
1 1.00861 11.995 -1.11425
1 3.21454 12.0458 -3.31
4 6.5394 10.899 -4.3596
4 4.3596 8.7192 -4.3596
2 6.55532 8.79509 -2.19173
2 4.24781 10.8938 -2.21185
1 5.39882 9.82723 -3.27069
1 7.71136 9.95054 -1.05377
1 5.43484 11.9967 -1.20275
1 7.59667 12.027 -3.37428
4 10.899 10.899 -4.3596
4 8.7192 8.7192 -4.3596
2 10.9659 8.72623 -2.19944
2 8.73744 11.0422 -2.25686
1 9.8534 9.83036 -3.30372
1 11.9822 9.82148 -1.15193
1 9.85179 12.04 -1.13606
1 12.0022 11.9824 -3.27004
2 12.7514 12.8876 -0.19965
2 2.28188 2.1824 -0.28648
2 4.32983 13.0274 -0.0410181
2 6.12794 1.78031 -0.366899
2 8.75046 0.0759828 -0.0617451
2 10.5255 1.95918 -0.109477
2 0.34733 4.73374 -0.240091
2 2.21059 6.62317 -0.0864149
2 4.55751 4.6003 -0.280663
2 6.22732 6.36036 -0.365271
2 9.0415 4.69439 -0.287279
2 10.9178 6.47147 -0.107551
2 12.6648 8.31552 -0.40975
2 2.32695 11.1626 -0.143214
2 4.03587 8.37127 -0.327053
2 6.83538 11.377 -0.364405
2 9.18786 9.20495 -0.322156
2 10.9624 11.0631 -0.112928
2 3.35283 7.50828 0.603677
1 3.21536 12.0264 1.13078
2 9.62377 1.23775 0.710793
2 5.3215 5.5566 0.436298
2 9.84114 5.59396 0.491907
2 11.8889 12.0622 0.584061
2 11.8583 7.54408 0.570392
2 5.40915 0.899238 0.625998
2 1.26409 5.59241 0.547409
2 4.40176 6.65548 1.45919
2 7.56537 12.2411 0.547497
2 6.51878 0.0269688 1.36429
2 10.1675 9.97743 0.609381
2 10.923 8.64371 1.33226
