175
Atoms. Timestep: 10000000
4 0 0 -8.7192
4 2.1798 0 -6.5394
4 0 2.1798 -6.5394
4 2.1798 2.1798 -8.7192
3 1.0899 1.0899 -7.6293
3 3.2697 1.0899 -5.4495
3 1.0899 3.2697 -5.4495
3 3.2697 3.2697 -7.6293
4 4.3596 0 -8.7192
4 6.5394 0 -6.5394
4 4.3596 2.1798 -6.5394
4 6.5394 2.1798 -8.7192
3 5.4495 1.0899 -7.6293
3 7.6293 1.0899 -5.4495
3 5.4495 3.2697 -5.4495
3 7.6293 3.2697 -7.6293
4 8.7192 0 -8.7192
4 10.899 0 -6.5394
4 8.7192 2.1798 -6.5394
4 10.899 2.1798 -8.7192
3 9.8091 1.0899 -7.6293
3 11.9889 1.0899 -5.4495
3 9.8091 3.2697 -5.4495
3 11.9889 3.2697 -7.6293
4 0 4.3596 -8.7192
4 2.1798 4.3596 -6.5394
4 0 6.5394 -6.5394
4 2.1798 6.5394 -8.7192
3 1.0899 5.4495 -7.6293
3 3.2697 5.4495 -5.4495
3 1.0899 7.6293 -5.4495
3 3.2697 7.6293 -7.6293
4 4.3596 4.3596 -8.7192
4 6.5394 4.3596 -6.5394
4 4.3596 6.5394 -6.5394
4 6.5394 6.5394 -8.7192
3 5.4495 5.4495 -7.6293
3 7.6293 5.4495 -5.4495
3 5.4495 7.6293 -5.4495
3 7.6293 7.6293 -7.6293
4 8.7192 4.3596 -8.7192
4 10.899 4.3596 -6.5394
4 8.7192 6.5394 -6.5394
4 10.899 6.5394 -8.7192
3 9.8091 5.4495 -7.6293
3 11.9889 5.4495 -5.4495
3 9.8091 7.6293 -5.4495
3 11.9889 7.6293 -7.6293
4 0 8.7192 -8.7192
4 2.1798 8.7192 -6.5394
4 0 10.899 -6.5394
4 2.1798 10.899 -8.7192
3 1.0899 9.8091 -7.6293
3 3.2697 9.8091 -5.4495
3 1.0899 11.9889 -5.4495
3 3.2697 11.9889 -7.6293
4 4.3596 8.7192 -8.7192
4 6.5394 8.7192 -6.5394
4 4.3596 10.899 -6.5394
4 6.5394 10.899 -8.7192
3 5.4495 9.8091 -7.6293
3 7.6293 9.8091 -5.4495
3 5.4495 11.9889 -5.4495
3 7.6293 11.9889 -7.6293
4 8.7192 8.7192 -8.7192
4 10.899 8.7192 -6.5394
4 8.7192 10.899 -6.5394
4 10.899 10.899 -8.7192
3 9.8091 9.8091 -7.6293
3 11.9889 9.8091 -5.4495
3 9.8091 11.9889 -5.4495
3 11.9889 11.9889 -7.6293
2 2.13459 0.0357444 -2.15237
2 13.064 2.27816 -2.21123
1 1.0978 1.13868 -3.26655
1 3.19555 1.18489 -1.08867
1 1.07202 3.36745 -1.21682
1 3.25432 3.30268 -3.25459
4 2.1798 2.1798 -4.3596
4 0 0 -4.3596
2 6.54462 0.0523993 -2.09589
2 4.27509 2.16712 -2.23882
1 5.50419 1.02934 -3.27114
1 7.65296 1.14268 -0.969962
1 5.39708 3.19136 -1.10967
1 7.61961 3.2031 -3.2396
4 6.5394 2.1798 -4.3596
4 4.3596 0 -4.3596
2 10.8901 0.00528345 -2.2185
2 8.67269 2.13425 -2.18564
1 9.76145 1.10225 -3.30959
1 11.8808 1.12904 -1.19122
1 9.77225 3.27867 -1.04938
1 11.9197 3.29159 -3.26149
4 10.899 2.1798 -4.3596
4 8.7192 0 -4.3596
2 2.19261 4.45828 -2.22329
2 13.0425 6.56136 -2.19776
1 1.04344 5.45667 -3.34075
1 3.32331 5.43811 -1.04553
1 1.01903 7.58739 -1.0899
1 3.28209 7.6284 -3.30858
4 2.1798 6.5394 -4.3596
4 0 4.3596 -4.3596
4 6.5394 6.5394 -4.3596
2 6.56788 4.41394 -2.18923
2 4.39549 6.52549 -2.21872
4 4.3596 4.3596 -4.3596
1 5.49844 5.37026 -3.31444
1 7.63546 5.38582 -1.14316
1 5.41226 7.60408 -1.15545
1 7.63441 7.62217 -3.26589
4 10.899 6.5394 -4.3596
4 8.7192 4.3596 -4.3596
2 10.8572 4.3602 -2.03276
2 8.70893 6.47953 -2.20012
1 9.82442 5.46982 -3.21489
1 11.995 5.50271 -1.05171
1 9.71634 7.54378 -1.01162
1 11.978 7.62589 -3.31603
4 2.1798 10.899 -4.3596
4 0 8.7192 -4.3596
2 2.18528 8.74197 -2.25424
2 12.9718 10.89 -2.14264
1 1.04911 9.84513 -3.30568
1 3.31085 9.84431 -1.10665
1 0.981647 11.9719 -1.07048
1 3.24482 11.986 -3.19249
4 6.5394 10.899 -4.3596
4 4.3596 8.7192 -4.3596
2 6.58332 8.69107 -2.24276
2 4.42034 10.893 -2.12403
1 5.39309 9.82042 -3.27765
1 7.57182 9.78649 -1.1919
1 5.44478 11.9576 -1.11105
1 7.64286 12.0065 -3.36728
4 10.899 10.899 -4.3596
4 8.7192 8.7192 -4.3596
2 10.8941 8.71013 -2.17901
2 8.66641 10.9854 -2.23034
1 9.83177 9.87816 -3.34876
1 11.9723 9.80135 -0.973473
1 9.76394 12.0817 -1.11096
1 11.9943 11.9593 -3.27258
2 0.165965 0.421614 -0.290577
2 1.95133 2.18366 -0.257476
2 4.18977 12.9351 -0.190006
2 6.59564 2.43633 -0.0995848
2 8.94953 0.265692 -0.0766569
2 10.6157 1.98955 -0.198209
2 0.0792021 4.39153 -0.168844
2 2.50264 6.78283 -0.230985
2 4.69186 4.60821 -0.176599
2 6.46894 6.38082 -0.203616
2 8.44905 4.13993 -0.144404
2 11.0875 6.75299 -0.125945
2 12.7505 8.44556 -0.0919324
2 2.42439 11.1471 -0.181487
2 4.25534 8.66233 -0.0761741
2 6.13908 10.4293 -0.27221
2 8.80377 9.04115 -0.23111
2 10.4572 10.6684 -0.243231
2 3.35283 7.50828 0.603677
1 3.21536 12.0264 1.13078
2 9.59005 9.88717 0.701544
2 9.81676 1.13971 0.770793
2 1.01326 1.33111 0.497527
2 11.7424 7.73008 0.769698
1 7.27225 3.3311 1.32189
2 5.41355 9.48251 0.540958
2 10.5433 8.91919 1.45026
2 8.7507 1.9063 1.72306
1 5.80318 5.42595 1.29642
2 4.28503 6.67885 1.73392
2 1.84742 0.436299 1.46824
