176
Atoms. Timestep: 10000000
C 0 0 -8.7192
C 2.1798 0 -6.5394
C 0 2.1798 -6.5394
C 2.1798 2.1798 -8.7192
Si 1.0899 1.0899 -7.6293
Si 3.2697 1.0899 -5.4495
Si 1.0899 3.2697 -5.4495
Si 3.2697 3.2697 -7.6293
C 4.3596 0 -8.7192
C 6.5394 0 -6.5394
C 4.3596 2.1798 -6.5394
C 6.5394 2.1798 -8.7192
Si 5.4495 1.0899 -7.6293
Si 7.6293 1.0899 -5.4495
Si 5.4495 3.2697 -5.4495
Si 7.6293 3.2697 -7.6293
C 8.7192 0 -8.7192
C 10.899 0 -6.5394
C 8.7192 2.1798 -6.5394
C 10.899 2.1798 -8.7192
Si 9.8091 1.0899 -7.6293
Si 11.9889 1.0899 -5.4495
Si 9.8091 3.2697 -5.4495
Si 11.9889 3.2697 -7.6293
C 0 4.3596 -8.7192
C 2.1798 4.3596 -6.5394
C 0 6.5394 -6.5394
C 2.1798 6.5394 -8.7192
Si 1.0899 5.4495 -7.6293
Si 3.2697 5.4495 -5.4495
Si 1.0899 7.6293 -5.4495
Si 3.2697 7.6293 -7.6293
C 4.3596 4.3596 -8.7192
C 6.5394 4.3596 -6.5394
C 4.3596 6.5394 -6.5394
C 6.5394 6.5394 -8.7192
Si 5.4495 5.4495 -7.6293
Si 7.6293 5.4495 -5.4495
Si 5.4495 7.6293 -5.4495
Si 7.6293 7.6293 -7.6293
C 8.7192 4.3596 -8.7192
C 10.899 4.3596 -6.5394
C 8.7192 6.5394 -6.5394
C 10.899 6.5394 -8.7192
Si 9.8091 5.4495 -7.6293
Si 11.9889 5.4495 -5.4495
Si 9.8091 7.6293 -5.4495
Si 11.9889 7.6293 -7.6293
C 0 8.7192 -8.7192
C 2.1798 8.7192 -6.5394
C 0 10.899 -6.5394
C 2.1798 10.899 -8.7192
Si 1.0899 9.8091 -7.6293
Si 3.2697 9.8091 -5.4495
Si 1.0899 11.9889 -5.4495
Si 3.2697 11.9889 -7.6293
C 4.3596 8.7192 -8.7192
C 6.5394 8.7192 -6.5394
C 4.3596 10.899 -6.5394
C 6.5394 10.899 -8.7192
Si 5.4495 9.8091 -7.6293
Si 7.6293 9.8091 -5.4495
Si 5.4495 11.9889 -5.4495
Si 7.6293 11.9889 -7.6293
C 8.7192 8.7192 -8.7192
C 10.899 8.7192 -6.5394
C 8.7192 10.899 -6.5394
C 10.899 10.899 -8.7192
Si 9.8091 9.8091 -7.6293
Si 11.9889 9.8091 -5.4495
Si 9.8091 11.9889 -5.4495
Si 11.9889 11.9889 -7.6293
C 2.20612 0.0101129 -2.2984
C 13.0827 2.14566 -2.27304
Si 1.09367 1.07572 -3.35889
Si 3.26437 1.08942 -1.22431
Si 1.06752 3.25327 -1.25056
Si 3.24813 3.2647 -3.32644
C 2.1798 2.1798 -4.3596
C 0 0 -4.3596
C 6.57843 0.0333697 -2.32267
C 4.37814 2.25147 -2.23237
Si 5.45357 1.15376 -3.34617
Si 7.61976 1.11978 -1.11211
Si 5.55171 3.39733 -1.13749
Si 7.64431 3.30435 -3.34893
C 6.5394 2.1798 -4.3596
C 4.3596 0 -4.3596
C 10.9047 13.0578 -2.21881
C 8.71777 2.16953 -2.2629
Si 9.82809 1.09952 -3.37678
Si 11.9751 1.02088 -1.22345
Si 9.86219 3.27271 -1.24605
Si 11.99 3.24218 -3.34086
C 10.899 2.1798 -4.3596
C 8.7192 0 -4.3596
C 2.16544 4.38051 -2.26701
C 0.00324775 6.51231 -2.24234
Si 1.11018 5.46158 -3.30418
Si 3.27576 5.44999 -1.15418
Si 0.94573 7.66768 -1.12068
Si 3.21464 7.6555 -3.25769
C 2.1798 6.5394 -4.3596
C 0 4.3596 -4.3596
C 6.5394 6.5394 -4.3596
C 6.67058 4.4136 -2.16153
C 4.35471 6.51451 -2.26031
C 4.3596 4.3596 -4.3596
Si 5.44983 5.45778 -3.30191
Si 7.78106 5.44068 -1.10436
Si 5.44703 7.57432 -1.18871
Si 7.58466 7.68239 -3.3032
C 10.899 6.5394 -4.3596
C 8.7192 4.3596 -4.3596
C 10.9949 4.30231 -2.24565
C 8.7734 6.55501 -2.1906
Si 9.82717 5.43445 -3.31628
Si 12.0152 5.48615 -1.19993
Si 9.87986 7.66055 -1.14718
Si 11.9773 7.63896 -3.35528
C 2.1798 10.899 -4.3596
C 0 8.7192 -4.3596
C 2.11225 8.74825 -2.25433
C 13.0368 10.9491 -2.25015
Si 1.08235 9.89949 -3.27771
Si 3.18907 9.82324 -1.15295
Si 1.11893 12.076 -1.18362
Si 3.31917 11.9322 -3.2998
C 6.5394 10.899 -4.3596
C 4.3596 8.7192 -4.3596
C 6.49454 8.73391 -2.18417
C 4.31668 10.9161 -2.24342
Si 5.43907 9.80322 -3.32437
Si 7.59598 9.85323 -1.16838
Si 5.41051 12.0592 -1.16991
Si 7.61871 12.018 -3.31676
C 10.899 10.899 -4.3596
C 8.7192 8.7192 -4.3596
C 10.8611 8.68324 -2.27193
C 8.65108 10.9233 -2.26213
Si 9.76866 9.85613 -3.26859
Si 11.8969 9.86888 -1.14954
Si 9.77304 12.0149 -1.1187
Si 12.001 11.9803 -3.31731
C 0.344356 0.445304 -0.343972
C 2.1998 2.24987 -0.131398
C 4.5262 0.199643 -0.223785
C 6.22254 1.97046 -0.234787
C 8.9571 0.306117 -0.259462
C 10.982 2.1835 -0.260942
C 12.7792 4.11291 -0.48804
C 2.26748 6.75853 -0.275408
C 4.12102 4.05102 -0.287754
C 7.01868 6.97352 -0.416515
C 9.03873 4.48655 -0.282161
C 10.7974 6.29937 -0.224999
C 0.153516 9.04075 -0.30211
C 1.92924 10.8009 -0.313153
C 4.6293 9.01439 -0.30798
C 6.26298 10.7326 -0.271907
C 8.90279 8.87342 0.0229786
C 10.6424 10.7536 0.000968002
C 3.31677 3.12092 0.568967
C 11.925 3.31156 0.367295
Si 10.0785 5.27496 1.07632
C 5.52719 9.79689 0.544768
C 5.24264 1.20428 0.60074
C 11.2978 3.87976 1.82133
C 9.7737 9.90664 0.836985
C 0.988875 9.94317 0.361291
C 1.09575 1.32099 0.433941
C 7.77211 7.83355 0.530215
C 6.49829 8.82268 1.22241
C 8.49886 6.75043 1.57148
Si 4.36414 2.26038 1.83881
C 9.89769 1.24396 0.463946
