162
Atoms. Timestep: 1000
C 0 0 -8.7192
C 2.1798 0 -6.5394
C 0 2.1798 -6.5394
C 2.1798 2.1798 -8.7192
Si 1.0899 1.0899 -7.6293
Si 3.2697 1.0899 -5.4495
Si 1.0899 3.2697 -5.4495
Si 3.2697 3.2697 -7.6293
C 4.3596 0 -8.7192
C 6.5394 0 -6.5394
C 4.3596 2.1798 -6.5394
C 6.5394 2.1798 -8.7192
Si 5.4495 1.0899 -7.6293
Si 7.6293 1.0899 -5.4495
Si 5.4495 3.2697 -5.4495
Si 7.6293 3.2697 -7.6293
C 8.7192 0 -8.7192
C 10.899 0 -6.5394
C 8.7192 2.1798 -6.5394
C 10.899 2.1798 -8.7192
Si 9.8091 1.0899 -7.6293
Si 11.9889 1.0899 -5.4495
Si 9.8091 3.2697 -5.4495
Si 11.9889 3.2697 -7.6293
C 0 4.3596 -8.7192
C 2.1798 4.3596 -6.5394
C 0 6.5394 -6.5394
C 2.1798 6.5394 -8.7192
Si 1.0899 5.4495 -7.6293
Si 3.2697 5.4495 -5.4495
Si 1.0899 7.6293 -5.4495
Si 3.2697 7.6293 -7.6293
C 4.3596 4.3596 -8.7192
C 6.5394 4.3596 -6.5394
C 4.3596 6.5394 -6.5394
C 6.5394 6.5394 -8.7192
Si 5.4495 5.4495 -7.6293
Si 7.6293 5.4495 -5.4495
Si 5.4495 7.6293 -5.4495
Si 7.6293 7.6293 -7.6293
C 8.7192 4.3596 -8.7192
C 10.899 4.3596 -6.5394
C 8.7192 6.5394 -6.5394
C 10.899 6.5394 -8.7192
Si 9.8091 5.4495 -7.6293
Si 11.9889 5.4495 -5.4495
Si 9.8091 7.6293 -5.4495
Si 11.9889 7.6293 -7.6293
C 0 8.7192 -8.7192
C 2.1798 8.7192 -6.5394
C 0 10.899 -6.5394
C 2.1798 10.899 -8.7192
Si 1.0899 9.8091 -7.6293
Si 3.2697 9.8091 -5.4495
Si 1.0899 11.9889 -5.4495
Si 3.2697 11.9889 -7.6293
C 4.3596 8.7192 -8.7192
C 6.5394 8.7192 -6.5394
C 4.3596 10.899 -6.5394
C 6.5394 10.899 -8.7192
Si 5.4495 9.8091 -7.6293
Si 7.6293 9.8091 -5.4495
Si 5.4495 11.9889 -5.4495
Si 7.6293 11.9889 -7.6293
C 8.7192 8.7192 -8.7192
C 10.899 8.7192 -6.5394
C 8.7192 10.899 -6.5394
C 10.899 10.899 -8.7192
Si 9.8091 9.8091 -7.6293
Si 11.9889 9.8091 -5.4495
Si 9.8091 11.9889 -5.4495
Si 11.9889 11.9889 -7.6293
C 2.20072 13.0632 -2.23242
C 0.0405088 2.19067 -2.17528
Si 1.13536 1.07542 -3.25176
Si 3.21541 1.12306 -1.12085
Si 1.11153 3.25337 -1.01819
Si 3.27281 3.31998 -3.18821
C 2.1798 2.1798 -4.3596
C 0 0 -4.3596
C 6.58684 13.0238 -2.29654
C 4.33322 2.14332 -2.16315
Si 5.42827 1.08465 -3.28225
Si 7.61437 1.1673 -1.13877
Si 5.48349 3.33301 -1.08083
Si 7.61568 3.27245 -3.34879
C 6.5394 2.1798 -4.3596
C 4.3596 0 -4.3596
C 10.8779 0.0710363 -2.14925
C 8.67238 2.25065 -2.21448
Si 9.81675 1.17684 -3.29499
Si 12.0404 1.09375 -1.08179
Si 9.86727 3.30297 -1.12044
Si 12.0288 3.32925 -3.24896
C 10.899 2.1798 -4.3596
C 8.7192 0 -4.3596
C 2.18247 4.36786 -2.04992
C 0.00668457 6.44272 -2.17013
Si 1.10216 5.41429 -3.20367
Si 3.31416 5.54208 -1.0321
Si 1.094 7.59716 -1.06457
Si 3.23794 7.67428 -3.33709
C 2.1798 6.5394 -4.3596
C 0 4.3596 -4.3596
C 6.5394 6.5394 -4.3596
C 6.51599 4.29923 -2.12739
C 4.3705 6.6284 -2.1528
C 4.3596 4.3596 -4.3596
Si 5.42598 5.45556 -3.22173
Si 7.68412 5.47158 -1.07319
Si 5.4522 7.74235 -1.02749
Si 7.64866 7.6502 -3.20794
C 10.899 6.5394 -4.3596
C 8.7192 4.3596 -4.3596
C 10.8933 4.43238 -2.16238
C 8.79255 6.60855 -2.10626
Si 9.81607 5.49133 -3.30171
Si 11.9666 5.42596 -1.07473
Si 9.88823 7.61626 -1.13005
Si 12.0493 7.5828 -3.28212
C 2.1798 10.899 -4.3596
C 0 8.7192 -4.3596
C 2.21281 8.72527 -2.17405
C 13.0688 10.9104 -2.1526
Si 1.07858 9.80991 -3.29764
Si 3.22628 9.82236 -1.11449
Si 1.10433 11.9592 -1.10847
Si 3.2786 12.076 -3.29779
C 6.5394 10.899 -4.3596
C 4.3596 8.7192 -4.3596
C 6.53812 8.75182 -2.19965
C 4.32669 11.0242 -2.27187
Si 5.39075 9.90794 -3.29316
Si 7.62328 9.86467 -1.18058
Si 5.47627 12.0577 -1.15237
Si 7.64381 11.9498 -3.35323
C 10.899 10.899 -4.3596
C 8.7192 8.7192 -4.3596
C 10.978 8.70825 -2.08211
C 8.72404 10.983 -2.19701
Si 9.8384 9.76712 -3.28086
Si 12.0023 9.88281 -0.990046
Si 9.85342 12.1469 -1.15729
Si 12.0534 12.0531 -3.20502
C 0.0355683 13.0664 -0.217104
C 2.15618 2.1185 -0.141396
C 4.35031 0.025029 -0.287534
C 6.57711 2.33611 -0.218952
C 8.64383 13.0148 -0.203501
C 10.9212 2.23395 -0.26285
C 0.101934 4.35929 -0.158003
C 2.21769 6.57739 -0.176527
C 4.47413 4.53966 -0.22601
C 6.43327 6.49826 -0.21477
C 8.78569 4.34897 -0.130506
C 10.9634 6.58396 -0.212101
C 0.0801502 8.76924 -0.180221
C 2.10457 10.8195 -0.282928
C 4.22134 8.78641 -0.119336
C 6.56354 10.8971 -0.336002
C 8.75044 8.71666 -0.333725
C 10.9102 11.1092 -0.242348
