173
Atoms. Timestep: 10000000
4 0 0 -8.7192
4 2.1798 0 -6.5394
4 0 2.1798 -6.5394
4 2.1798 2.1798 -8.7192
3 1.0899 1.0899 -7.6293
3 3.2697 1.0899 -5.4495
3 1.0899 3.2697 -5.4495
3 3.2697 3.2697 -7.6293
4 4.3596 0 -8.7192
4 6.5394 0 -6.5394
4 4.3596 2.1798 -6.5394
4 6.5394 2.1798 -8.7192
3 5.4495 1.0899 -7.6293
3 7.6293 1.0899 -5.4495
3 5.4495 3.2697 -5.4495
3 7.6293 3.2697 -7.6293
4 8.7192 0 -8.7192
4 10.899 0 -6.5394
4 8.7192 2.1798 -6.5394
4 10.899 2.1798 -8.7192
3 9.8091 1.0899 -7.6293
3 11.9889 1.0899 -5.4495
3 9.8091 3.2697 -5.4495
3 11.9889 3.2697 -7.6293
4 0 4.3596 -8.7192
4 2.1798 4.3596 -6.5394
4 0 6.5394 -6.5394
4 2.1798 6.5394 -8.7192
3 1.0899 5.4495 -7.6293
3 3.2697 5.4495 -5.4495
3 1.0899 7.6293 -5.4495
3 3.2697 7.6293 -7.6293
4 4.3596 4.3596 -8.7192
4 6.5394 4.3596 -6.5394
4 4.3596 6.5394 -6.5394
4 6.5394 6.5394 -8.7192
3 5.4495 5.4495 -7.6293
3 7.6293 5.4495 -5.4495
3 5.4495 7.6293 -5.4495
3 7.6293 7.6293 -7.6293
4 8.7192 4.3596 -8.7192
4 10.899 4.3596 -6.5394
4 8.7192 6.5394 -6.5394
4 10.899 6.5394 -8.7192
3 9.8091 5.4495 -7.6293
3 11.9889 5.4495 -5.4495
3 9.8091 7.6293 -5.4495
3 11.9889 7.6293 -7.6293
4 0 8.7192 -8.7192
4 2.1798 8.7192 -6.5394
4 0 10.899 -6.5394
4 2.1798 10.899 -8.7192
3 1.0899 9.8091 -7.6293
3 3.2697 9.8091 -5.4495
3 1.0899 11.9889 -5.4495
3 3.2697 11.9889 -7.6293
4 4.3596 8.7192 -8.7192
4 6.5394 8.7192 -6.5394
4 4.3596 10.899 -6.5394
4 6.5394 10.899 -8.7192
3 5.4495 9.8091 -7.6293
3 7.6293 9.8091 -5.4495
3 5.4495 11.9889 -5.4495
3 7.6293 11.9889 -7.6293
4 8.7192 8.7192 -8.7192
4 10.899 8.7192 -6.5394
4 8.7192 10.899 -6.5394
4 10.899 10.899 -8.7192
3 9.8091 9.8091 -7.6293
3 11.9889 9.8091 -5.4495
3 9.8091 11.9889 -5.4495
3 11.9889 11.9889 -7.6293
2 2.2429 0.0980626 -2.22898
2 0.0528423 2.23097 -2.15857
1 1.06047 1.12684 -3.27436
1 3.37926 1.08706 -1.11187
1 1.22848 3.20031 -0.97584
1 3.32981 3.25739 -3.29082
4 2.1798 2.1798 -4.3596
4 0 0 -4.3596
2 6.62462 0.0224582 -2.17719
2 4.36345 2.18447 -2.18861
1 5.43489 1.12249 -3.29065
1 7.60744 1.1551 -1.06735
1 5.44542 3.33268 -1.14551
1 7.68989 3.24485 -3.25888
4 6.5394 2.1798 -4.3596
4 4.3596 0 -4.3596
2 10.9611 0.139224 -2.26572
2 8.68862 2.23705 -2.12731
1 9.83553 1.12894 -3.33077
1 12.0779 1.10602 -1.09726
1 9.78072 3.33946 -1.07648
1 12.0552 3.29165 -3.26452
4 10.899 2.1798 -4.3596
4 8.7192 0 -4.3596
2 2.14312 4.31916 -2.21453
2 13.0654 6.43439 -2.24956
1 1.14508 5.35142 -3.30888
1 3.25089 5.48425 -1.13346
1 1.09813 7.62837 -1.2277
1 3.28567 7.5833 -3.31834
4 2.1798 6.5394 -4.3596
4 0 4.3596 -4.3596
4 6.5394 6.5394 -4.3596
2 6.58184 4.50397 -2.14191
2 4.31594 6.46848 -2.24722
4 4.3596 4.3596 -4.3596
1 5.48181 5.48919 -3.26954
1 7.64801 5.56871 -1.08545
1 5.42591 7.61419 -1.12165
1 7.62212 7.60831 -3.33371
4 10.899 6.5394 -4.3596
4 8.7192 4.3596 -4.3596
2 10.9113 4.4063 -2.17995
2 8.75644 6.54994 -2.23659
1 9.80735 5.4457 -3.24768
1 11.9597 5.40106 -1.04475
1 9.81173 7.71002 -1.10449
1 12.0098 7.63798 -3.30301
4 2.1798 10.899 -4.3596
4 0 8.7192 -4.3596
2 2.20913 8.72838 -2.27405
2 0.114161 10.9504 -2.25769
1 1.12586 9.81069 -3.33942
1 3.31011 9.7724 -1.17004
1 1.12334 11.9788 -1.12883
1 3.35263 11.9692 -3.2209
4 6.5394 10.899 -4.3596
4 4.3596 8.7192 -4.3596
2 6.53879 8.68987 -2.21305
2 4.47893 10.8389 -2.16421
1 5.5105 9.82697 -3.2974
1 7.67769 9.84895 -1.17464
1 5.50884 11.9267 -1.0624
1 7.62661 11.9992 -3.27883
4 10.899 10.899 -4.3596
4 8.7192 8.7192 -4.3596
2 10.8785 8.77164 -2.28394
2 8.69791 10.879 -2.29895
1 9.82381 9.85264 -3.33717
1 12.0661 9.84477 -1.20026
1 9.84017 12.0445 -1.27379
1 12.0437 12.027 -3.30609
2 0.115291 0.0152941 0.0407441
2 2.08982 1.85503 0.0325595
2 4.30222 12.9025 -0.123365
2 6.72119 2.64513 -0.0230259
2 8.72857 0.0176229 -0.098831
2 10.6847 1.94407 -0.214757
2 0.395479 4.71258 -0.306766
2 2.24119 6.61478 -0.163993
2 4.4455 4.50585 -0.366248
2 6.78859 6.87413 -0.173267
2 8.62503 4.34004 -0.0296197
2 11.1903 6.86029 -0.195732
2 12.9926 8.579 -0.230083
2 2.39125 11.0395 -0.190107
2 4.17466 8.42636 -0.15924
2 6.9303 11.2887 -0.293267
2 8.53829 8.58488 -0.205251
2 11.2368 11.2201 -0.389173
2 3.35283 7.50828 0.603677
1 3.21536 12.0264 1.13078
1 9.92568 0.851808 1.06487
2 7.62581 7.7892 0.597336
2 12.1159 7.69425 0.442336
2 1.27159 0.793417 0.751965
1 11.7356 12.1782 1.14293
2 7.52517 3.60964 0.758061
2 1.99523 12.8817 1.78401
2 1.26486 5.49669 0.459977
2 7.78715 12.1649 0.481409
