173
Atoms. Timestep: 10000000
C 0 0 -8.7192
C 2.1798 0 -6.5394
C 0 2.1798 -6.5394
C 2.1798 2.1798 -8.7192
Si 1.0899 1.0899 -7.6293
Si 3.2697 1.0899 -5.4495
Si 1.0899 3.2697 -5.4495
Si 3.2697 3.2697 -7.6293
C 4.3596 0 -8.7192
C 6.5394 0 -6.5394
C 4.3596 2.1798 -6.5394
C 6.5394 2.1798 -8.7192
Si 5.4495 1.0899 -7.6293
Si 7.6293 1.0899 -5.4495
Si 5.4495 3.2697 -5.4495
Si 7.6293 3.2697 -7.6293
C 8.7192 0 -8.7192
C 10.899 0 -6.5394
C 8.7192 2.1798 -6.5394
C 10.899 2.1798 -8.7192
Si 9.8091 1.0899 -7.6293
Si 11.9889 1.0899 -5.4495
Si 9.8091 3.2697 -5.4495
Si 11.9889 3.2697 -7.6293
C 0 4.3596 -8.7192
C 2.1798 4.3596 -6.5394
C 0 6.5394 -6.5394
C 2.1798 6.5394 -8.7192
Si 1.0899 5.4495 -7.6293
Si 3.2697 5.4495 -5.4495
Si 1.0899 7.6293 -5.4495
Si 3.2697 7.6293 -7.6293
C 4.3596 4.3596 -8.7192
C 6.5394 4.3596 -6.5394
C 4.3596 6.5394 -6.5394
C 6.5394 6.5394 -8.7192
Si 5.4495 5.4495 -7.6293
Si 7.6293 5.4495 -5.4495
Si 5.4495 7.6293 -5.4495
Si 7.6293 7.6293 -7.6293
C 8.7192 4.3596 -8.7192
C 10.899 4.3596 -6.5394
C 8.7192 6.5394 -6.5394
C 10.899 6.5394 -8.7192
Si 9.8091 5.4495 -7.6293
Si 11.9889 5.4495 -5.4495
Si 9.8091 7.6293 -5.4495
Si 11.9889 7.6293 -7.6293
C 0 8.7192 -8.7192
C 2.1798 8.7192 -6.5394
C 0 10.899 -6.5394
C 2.1798 10.899 -8.7192
Si 1.0899 9.8091 -7.6293
Si 3.2697 9.8091 -5.4495
Si 1.0899 11.9889 -5.4495
Si 3.2697 11.9889 -7.6293
C 4.3596 8.7192 -8.7192
C 6.5394 8.7192 -6.5394
C 4.3596 10.899 -6.5394
C 6.5394 10.899 -8.7192
Si 5.4495 9.8091 -7.6293
Si 7.6293 9.8091 -5.4495
Si 5.4495 11.9889 -5.4495
Si 7.6293 11.9889 -7.6293
C 8.7192 8.7192 -8.7192
C 10.899 8.7192 -6.5394
C 8.7192 10.899 -6.5394
C 10.899 10.899 -8.7192
Si 9.8091 9.8091 -7.6293
Si 11.9889 9.8091 -5.4495
Si 9.8091 11.9889 -5.4495
Si 11.9889 11.9889 -7.6293
C 2.3243 0.0560396 -2.12845
C 13.0386 2.15008 -2.2336
Si 1.11488 1.03463 -3.3155
Si 3.29467 1.13411 -1.01903
Si 1.05972 3.23951 -1.19652
Si 3.24703 3.27804 -3.32641
C 2.1798 2.1798 -4.3596
C 0 0 -4.3596
C 6.57717 0.0970777 -2.2377
C 4.3297 2.166 -2.14061
Si 5.46656 1.17513 -3.28844
Si 7.63384 1.15707 -1.17912
Si 5.41624 3.22994 -1.00106
Si 7.60113 3.26265 -3.31479
C 6.5394 2.1798 -4.3596
C 4.3596 0 -4.3596
C 10.9469 0.0206843 -2.24729
C 8.73899 2.20709 -2.19281
Si 9.78442 1.09289 -3.25424
Si 11.9658 1.05212 -1.1969
Si 9.85361 3.27262 -1.11323
Si 11.9649 3.26968 -3.27097
C 10.899 2.1798 -4.3596
C 8.7192 0 -4.3596
C 2.20643 4.46733 -2.23879
C 13.0556 6.55261 -2.21549
Si 1.04948 5.4409 -3.29903
Si 3.38007 5.47138 -1.18921
Si 1.14707 7.61257 -1.15009
Si 3.29475 7.63263 -3.28989
C 2.1798 6.5394 -4.3596
C 0 4.3596 -4.3596
C 6.5394 6.5394 -4.3596
C 6.50333 4.33512 -2.17032
C 4.4044 6.58047 -2.17734
C 4.3596 4.3596 -4.3596
Si 5.45969 5.4365 -3.33892
Si 7.66089 5.42485 -1.07484
Si 5.56009 7.54171 -1.0011
Si 7.65764 7.61004 -3.28726
C 10.899 6.5394 -4.3596
C 8.7192 4.3596 -4.3596
C 10.8872 4.34473 -2.19973
C 8.80875 6.47773 -2.19227
Si 9.81373 5.46299 -3.27776
Si 12.0173 5.46155 -1.04735
Si 9.89916 7.61946 -1.11639
Si 11.9711 7.63033 -3.27952
C 2.1798 10.899 -4.3596
C 0 8.7192 -4.3596
C 2.14996 8.72877 -2.17585
C 0.00498391 10.8589 -2.13981
Si 1.12724 9.76653 -3.26274
Si 3.29724 9.8269 -0.952289
Si 1.20284 11.9659 -1.04869
Si 3.31229 11.9957 -3.25393
C 6.5394 10.899 -4.3596
C 4.3596 8.7192 -4.3596
C 6.58081 8.71222 -2.14872
C 4.4043 10.8864 -2.13511
Si 5.43116 9.79093 -3.25264
Si 7.68155 9.79128 -1.04597
Si 5.51785 12.0363 -1.03129
Si 7.62026 11.9574 -3.28585
C 10.899 10.899 -4.3596
C 8.7192 8.7192 -4.3596
C 10.9387 8.67575 -2.20033
C 8.69922 10.9555 -2.15891
Si 9.72339 9.77603 -3.24697
Si 11.9797 9.88918 -1.1015
Si 9.79619 12.0149 -1.18633
Si 11.976 11.9931 -3.32339
C 12.9764 12.8862 -0.208742
C 2.35955 2.41948 -0.22454
C 4.26196 12.9814 -0.0434965
C 6.78502 2.34976 -0.124083
C 8.70256 13.0447 -0.230893
C 10.5149 1.83264 -0.307591
C 0.327932 4.49178 -0.231659
C 2.2286 6.54187 -0.0752511
C 4.10045 4.16507 -0.175655
C 6.82566 6.62032 -0.0494675
C 8.53966 4.08454 -0.162841
C 11.1859 6.78805 -0.229474
C 12.9597 8.49656 -0.273453
C 2.47717 11.1717 -0.0871868
C 4.09315 8.34905 -0.190992
C 6.91009 11.2627 -0.16506
C 8.55608 8.49829 -0.147898
C 11.1474 11.2556 -0.148826
C 7.79829 3.14818 0.738276
C 9.5296 1.05252 0.462411
C 12.112 7.64756 0.426717
C 7.79493 12.1135 0.561191
C 3.35855 12.0668 0.704503
Si 3.04598 3.43381 1.21726
C 12.0189 12.1446 0.547901
C 7.72851 7.5472 0.673047
Si 1.47573 5.20182 1.11712
C 3.09525 7.53396 0.57409
C 8.54914 1.7343 1.52696
