175
Atoms. Timestep: 10000000
C 0 0 -8.7192
C 2.1798 0 -6.5394
C 0 2.1798 -6.5394
C 2.1798 2.1798 -8.7192
Si 1.0899 1.0899 -7.6293
Si 3.2697 1.0899 -5.4495
Si 1.0899 3.2697 -5.4495
Si 3.2697 3.2697 -7.6293
C 4.3596 0 -8.7192
C 6.5394 0 -6.5394
C 4.3596 2.1798 -6.5394
C 6.5394 2.1798 -8.7192
Si 5.4495 1.0899 -7.6293
Si 7.6293 1.0899 -5.4495
Si 5.4495 3.2697 -5.4495
Si 7.6293 3.2697 -7.6293
C 8.7192 0 -8.7192
C 10.899 0 -6.5394
C 8.7192 2.1798 -6.5394
C 10.899 2.1798 -8.7192
Si 9.8091 1.0899 -7.6293
Si 11.9889 1.0899 -5.4495
Si 9.8091 3.2697 -5.4495
Si 11.9889 3.2697 -7.6293
C 0 4.3596 -8.7192
C 2.1798 4.3596 -6.5394
C 0 6.5394 -6.5394
C 2.1798 6.5394 -8.7192
Si 1.0899 5.4495 -7.6293
Si 3.2697 5.4495 -5.4495
Si 1.0899 7.6293 -5.4495
Si 3.2697 7.6293 -7.6293
C 4.3596 4.3596 -8.7192
C 6.5394 4.3596 -6.5394
C 4.3596 6.5394 -6.5394
C 6.5394 6.5394 -8.7192
Si 5.4495 5.4495 -7.6293
Si 7.6293 5.4495 -5.4495
Si 5.4495 7.6293 -5.4495
Si 7.6293 7.6293 -7.6293
C 8.7192 4.3596 -8.7192
C 10.899 4.3596 -6.5394
C 8.7192 6.5394 -6.5394
C 10.899 6.5394 -8.7192
Si 9.8091 5.4495 -7.6293
Si 11.9889 5.4495 -5.4495
Si 9.8091 7.6293 -5.4495
Si 11.9889 7.6293 -7.6293
C 0 8.7192 -8.7192
C 2.1798 8.7192 -6.5394
C 0 10.899 -6.5394
C 2.1798 10.899 -8.7192
Si 1.0899 9.8091 -7.6293
Si 3.2697 9.8091 -5.4495
Si 1.0899 11.9889 -5.4495
Si 3.2697 11.9889 -7.6293
C 4.3596 8.7192 -8.7192
C 6.5394 8.7192 -6.5394
C 4.3596 10.899 -6.5394
C 6.5394 10.899 -8.7192
Si 5.4495 9.8091 -7.6293
Si 7.6293 9.8091 -5.4495
Si 5.4495 11.9889 -5.4495
Si 7.6293 11.9889 -7.6293
C 8.7192 8.7192 -8.7192
C 10.899 8.7192 -6.5394
C 8.7192 10.899 -6.5394
C 10.899 10.899 -8.7192
Si 9.8091 9.8091 -7.6293
Si 11.9889 9.8091 -5.4495
Si 9.8091 11.9889 -5.4495
Si 11.9889 11.9889 -7.6293
C 2.21978 0.0571959 -2.22952
C 12.9785 2.20525 -2.25965
Si 1.06762 1.05432 -3.30489
Si 3.29547 1.23094 -1.07781
Si 1.05325 3.30376 -1.23579
Si 3.28082 3.22056 -3.29279
C 2.1798 2.1798 -4.3596
C 0 0 -4.3596
C 6.52903 0.0359373 -2.23963
C 4.37826 2.24683 -2.21092
Si 5.50371 1.11517 -3.27922
Si 7.68575 1.09413 -1.12995
Si 5.50277 3.3273 -1.19615
Si 7.65047 3.20246 -3.28164
C 6.5394 2.1798 -4.3596
C 4.3596 0 -4.3596
C 10.884 13.0342 -2.19315
C 8.71827 2.17478 -2.25219
Si 9.7991 1.015 -3.29038
Si 11.8698 1.06996 -1.07945
Si 9.83375 3.24059 -0.978191
Si 11.9403 3.30966 -3.30222
C 10.899 2.1798 -4.3596
C 8.7192 0 -4.3596
C 2.1734 4.38069 -2.2866
C 13.0367 6.57236 -2.19025
Si 1.08276 5.52996 -3.29553
Si 3.24052 5.40603 -1.19559
Si 1.15407 7.704 -1.14092
Si 3.25342 7.62916 -3.30851
C 2.1798 6.5394 -4.3596
C 0 4.3596 -4.3596
C 6.5394 6.5394 -4.3596
C 6.58552 4.41112 -2.25552
C 4.31567 6.62547 -2.26938
C 4.3596 4.3596 -4.3596
Si 5.45298 5.51777 -3.28967
Si 7.68022 5.43886 -1.10094
Si 5.45305 7.62054 -1.12145
Si 7.68026 7.57519 -3.32515
C 10.899 6.5394 -4.3596
C 8.7192 4.3596 -4.3596
C 10.9182 4.3452 -2.10857
C 8.72294 6.49773 -2.21141
Si 9.79918 5.44421 -3.19296
Si 11.9375 5.5359 -1.06611
Si 9.75898 7.66404 -1.05746
Si 11.9788 7.729 -3.29143
C 2.1798 10.899 -4.3596
C 0 8.7192 -4.3596
C 2.22426 8.81122 -2.2961
C 13.0719 10.9252 -2.25095
Si 1.1218 9.86603 -3.30508
Si 3.21013 9.88772 -1.10923
Si 1.06889 12.0131 -1.12018
Si 3.31695 12.0424 -3.31989
C 6.5394 10.899 -4.3596
C 4.3596 8.7192 -4.3596
C 6.59375 8.73211 -2.26712
C 4.3808 10.9311 -2.17867
Si 5.45819 9.77578 -3.34602
Si 7.57803 9.80997 -1.11963
Si 5.44419 12.1082 -1.15991
Si 7.58926 11.9775 -3.26429
C 10.899 10.899 -4.3596
C 8.7192 8.7192 -4.3596
C 10.8369 8.73898 -2.19375
C 8.6546 10.943 -2.26845
Si 9.76348 9.83893 -3.35712
Si 12.0105 9.82892 -1.14184
Si 9.74228 12.0246 -1.01179
Si 11.9906 11.9621 -3.2875
C 0.190787 0.404889 -0.276754
C 1.89918 2.1502 -0.284789
C 4.09342 12.9187 -0.283055
C 6.59262 2.23523 -0.280819
C 8.78901 0.148349 0.0558125
C 10.6613 1.95258 -0.122494
C 0.328443 4.78101 -0.401077
C 2.19837 6.60284 -0.153789
C 4.57978 4.53253 -0.2847
C 6.33932 6.26542 -0.116801
C 8.8805 4.64241 -0.109443
C 10.6363 6.2794 -0.10613
C 0.356009 9.11175 -0.321977
C 2.18879 11.001 -0.0710971
C 4.11243 8.44099 -0.250932
C 6.87657 11.3806 -0.37098
C 8.85189 9.00727 -0.178031
C 10.6798 10.7043 -0.0835783
C 3.35283 7.50828 0.603677
Si 3.21536 12.0264 1.13078
C 9.59005 9.88717 0.701544
C 9.81676 1.13971 0.770793
C 1.01326 1.33111 0.497527
C 5.3923 5.36986 0.683428
C 4.1605 6.24536 1.18671
C 9.76955 5.48971 0.77023
C 7.79648 12.0614 0.586256
C 8.34191 10.8498 1.29334
C 1.09316 10.0366 0.480079
C 2.03495 0.404397 1.5042
C 1.2174 5.54882 0.384005
