175
Atoms. Timestep: 10000000
C 0 0 -8.7192
C 2.1798 0 -6.5394
C 0 2.1798 -6.5394
C 2.1798 2.1798 -8.7192
Si 1.0899 1.0899 -7.6293
Si 3.2697 1.0899 -5.4495
Si 1.0899 3.2697 -5.4495
Si 3.2697 3.2697 -7.6293
C 4.3596 0 -8.7192
C 6.5394 0 -6.5394
C 4.3596 2.1798 -6.5394
C 6.5394 2.1798 -8.7192
Si 5.4495 1.0899 -7.6293
Si 7.6293 1.0899 -5.4495
Si 5.4495 3.2697 -5.4495
Si 7.6293 3.2697 -7.6293
C 8.7192 0 -8.7192
C 10.899 0 -6.5394
C 8.7192 2.1798 -6.5394
C 10.899 2.1798 -8.7192
Si 9.8091 1.0899 -7.6293
Si 11.9889 1.0899 -5.4495
Si 9.8091 3.2697 -5.4495
Si 11.9889 3.2697 -7.6293
C 0 4.3596 -8.7192
C 2.1798 4.3596 -6.5394
C 0 6.5394 -6.5394
C 2.1798 6.5394 -8.7192
Si 1.0899 5.4495 -7.6293
Si 3.2697 5.4495 -5.4495
Si 1.0899 7.6293 -5.4495
Si 3.2697 7.6293 -7.6293
C 4.3596 4.3596 -8.7192
C 6.5394 4.3596 -6.5394
C 4.3596 6.5394 -6.5394
C 6.5394 6.5394 -8.7192
Si 5.4495 5.4495 -7.6293
Si 7.6293 5.4495 -5.4495
Si 5.4495 7.6293 -5.4495
Si 7.6293 7.6293 -7.6293
C 8.7192 4.3596 -8.7192
C 10.899 4.3596 -6.5394
C 8.7192 6.5394 -6.5394
C 10.899 6.5394 -8.7192
Si 9.8091 5.4495 -7.6293
Si 11.9889 5.4495 -5.4495
Si 9.8091 7.6293 -5.4495
Si 11.9889 7.6293 -7.6293
C 0 8.7192 -8.7192
C 2.1798 8.7192 -6.5394
C 0 10.899 -6.5394
C 2.1798 10.899 -8.7192
Si 1.0899 9.8091 -7.6293
Si 3.2697 9.8091 -5.4495
Si 1.0899 11.9889 -5.4495
Si 3.2697 11.9889 -7.6293
C 4.3596 8.7192 -8.7192
C 6.5394 8.7192 -6.5394
C 4.3596 10.899 -6.5394
C 6.5394 10.899 -8.7192
Si 5.4495 9.8091 -7.6293
Si 7.6293 9.8091 -5.4495
Si 5.4495 11.9889 -5.4495
Si 7.6293 11.9889 -7.6293
C 8.7192 8.7192 -8.7192
C 10.899 8.7192 -6.5394
C 8.7192 10.899 -6.5394
C 10.899 10.899 -8.7192
Si 9.8091 9.8091 -7.6293
Si 11.9889 9.8091 -5.4495
Si 9.8091 11.9889 -5.4495
Si 11.9889 11.9889 -7.6293
C 2.13036 12.9563 -2.16191
C 0.0238203 2.14471 -2.24737
Si 1.11546 1.08022 -3.33607
Si 3.17108 0.991766 -1.16805
Si 1.06688 3.22115 -1.19149
Si 3.27892 3.26717 -3.30168
C 2.1798 2.1798 -4.3596
C 0 0 -4.3596
C 6.54264 0.0103229 -2.2765
C 4.24298 2.20434 -2.21682
Si 5.38294 1.13236 -3.30364
Si 7.59621 1.11524 -1.13574
Si 5.4063 3.2922 -1.20008
Si 7.62865 3.2324 -3.3346
C 6.5394 2.1798 -4.3596
C 4.3596 0 -4.3596
C 10.8951 13.0198 -2.20838
C 8.74556 2.14006 -2.25812
Si 9.81977 1.06649 -3.32757
Si 11.9909 1.06436 -1.15936
Si 9.8284 3.21372 -1.24554
Si 12.0087 3.22986 -3.31479
C 10.899 2.1798 -4.3596
C 8.7192 0 -4.3596
C 2.18755 4.30569 -2.28604
C 12.995 6.58541 -2.16115
Si 1.08543 5.43652 -3.32316
Si 3.10194 5.44848 -1.11169
Si 0.998716 7.64795 -1.02948
Si 3.27241 7.62776 -3.25672
C 2.1798 6.5394 -4.3596
C 0 4.3596 -4.3596
C 6.5394 6.5394 -4.3596
C 6.55498 4.29823 -2.26636
C 4.26455 6.47123 -2.16917
C 4.3596 4.3596 -4.3596
Si 5.45145 5.43749 -3.30644
Si 7.64671 5.42493 -1.19191
Si 5.37915 7.57522 -1.1212
Si 7.6304 7.63293 -3.26061
C 10.899 6.5394 -4.3596
C 8.7192 4.3596 -4.3596
C 10.9107 4.36513 -2.25229
C 8.76959 6.51183 -2.30232
Si 9.85146 5.41618 -3.29163
Si 11.9817 5.41577 -1.18022
Si 9.86446 7.666 -1.11754
Si 11.9644 7.62116 -3.27415
C 2.1798 10.899 -4.3596
C 0 8.7192 -4.3596
C 2.16499 8.61292 -2.13253
C 0.0351554 10.9146 -2.18391
Si 1.11708 9.71707 -3.25088
Si 3.26291 9.85619 -1.12711
Si 1.0044 11.984 -0.971598
Si 3.2414 11.9567 -3.30429
C 6.5394 10.899 -4.3596
C 4.3596 8.7192 -4.3596
C 6.50776 8.66538 -2.20941
C 4.38545 10.9255 -2.13632
Si 5.42508 9.83705 -3.26014
Si 7.58599 9.82611 -1.15461
Si 5.42425 12.0034 -1.08049
Si 7.62571 11.9653 -3.27049
C 10.899 10.899 -4.3596
C 8.7192 8.7192 -4.3596
C 10.8683 8.68733 -2.23405
C 8.69262 10.8648 -2.24068
Si 9.80433 9.7938 -3.32391
Si 11.9503 9.82743 -1.09294
Si 9.79519 11.9152 -1.21979
Si 12.0095 12.0025 -3.28101
C 12.7304 12.8223 -0.0553464
C 2.39675 2.29478 -0.176714
C 4.48968 0.20407 -0.230271
C 6.23808 1.97197 -0.280654
C 8.47839 12.8393 -0.223885
C 11.1553 2.40297 -0.450749
C 13.0242 4.27011 -0.215682
C 1.67553 6.18572 -0.270051
C 4.02953 4.02204 -0.380933
C 6.79048 6.67926 -0.234511
C 8.96491 4.5238 -0.31457
C 10.6579 6.28987 -0.238988
C 0.189653 8.91794 -0.106628
C 2.04893 10.7334 -0.0423279
C 4.66321 9.09992 -0.355183
C 6.50303 10.8813 -0.0364203
C 8.50149 8.46155 -0.319398
C 10.9296 11.1061 -0.148628
C 3.31677 3.12092 0.568967
C 11.925 3.31156 0.367295
C 5.52719 9.79689 0.544768
C 5.24264 1.20428 0.60074
C 4.57582 2.42764 1.37047
C 1.17329 9.78523 0.695682
C 9.8886 5.34806 0.558872
C 11.0426 4.49057 1.22455
C 7.61023 7.61022 0.507588
C 7.62683 11.9151 0.623223
C 11.7154 11.9945 0.625051
C 6.42124 8.65693 1.23585
C 0.792501 5.3395 0.580494
