176
Atoms. Timestep: 10000000
C 0 0 -8.7192
C 2.1798 0 -6.5394
C 0 2.1798 -6.5394
C 2.1798 2.1798 -8.7192
Si 1.0899 1.0899 -7.6293
Si 3.2697 1.0899 -5.4495
Si 1.0899 3.2697 -5.4495
Si 3.2697 3.2697 -7.6293
C 4.3596 0 -8.7192
C 6.5394 0 -6.5394
C 4.3596 2.1798 -6.5394
C 6.5394 2.1798 -8.7192
Si 5.4495 1.0899 -7.6293
Si 7.6293 1.0899 -5.4495
Si 5.4495 3.2697 -5.4495
Si 7.6293 3.2697 -7.6293
C 8.7192 0 -8.7192
C 10.899 0 -6.5394
C 8.7192 2.1798 -6.5394
C 10.899 2.1798 -8.7192
Si 9.8091 1.0899 -7.6293
Si 11.9889 1.0899 -5.4495
Si 9.8091 3.2697 -5.4495
Si 11.9889 3.2697 -7.6293
C 0 4.3596 -8.7192
C 2.1798 4.3596 -6.5394
C 0 6.5394 -6.5394
C 2.1798 6.5394 -8.7192
Si 1.0899 5.4495 -7.6293
Si 3.2697 5.4495 -5.4495
Si 1.0899 7.6293 -5.4495
Si 3.2697 7.6293 -7.6293
C 4.3596 4.3596 -8.7192
C 6.5394 4.3596 -6.5394
C 4.3596 6.5394 -6.5394
C 6.5394 6.5394 -8.7192
Si 5.4495 5.4495 -7.6293
Si 7.6293 5.4495 -5.4495
Si 5.4495 7.6293 -5.4495
Si 7.6293 7.6293 -7.6293
C 8.7192 4.3596 -8.7192
C 10.899 4.3596 -6.5394
C 8.7192 6.5394 -6.5394
C 10.899 6.5394 -8.7192
Si 9.8091 5.4495 -7.6293
Si 11.9889 5.4495 -5.4495
Si 9.8091 7.6293 -5.4495
Si 11.9889 7.6293 -7.6293
C 0 8.7192 -8.7192
C 2.1798 8.7192 -6.5394
C 0 10.899 -6.5394
C 2.1798 10.899 -8.7192
Si 1.0899 9.8091 -7.6293
Si 3.2697 9.8091 -5.4495
Si 1.0899 11.9889 -5.4495
Si 3.2697 11.9889 -7.6293
C 4.3596 8.7192 -8.7192
C 6.5394 8.7192 -6.5394
C 4.3596 10.899 -6.5394
C 6.5394 10.899 -8.7192
Si 5.4495 9.8091 -7.6293
Si 7.6293 9.8091 -5.4495
Si 5.4495 11.9889 -5.4495
Si 7.6293 11.9889 -7.6293
C 8.7192 8.7192 -8.7192
C 10.899 8.7192 -6.5394
C 8.7192 10.899 -6.5394
C 10.899 10.899 -8.7192
Si 9.8091 9.8091 -7.6293
Si 11.9889 9.8091 -5.4495
Si 9.8091 11.9889 -5.4495
Si 11.9889 11.9889 -7.6293
C 2.17101 0.0617595 -2.24286
C 13.0586 2.20904 -2.38257
Si 1.09873 1.08741 -3.36073
Si 3.26013 1.08766 -1.26278
Si 1.0988 3.2916 -1.19884
Si 3.23631 3.35941 -3.28854
C 2.1798 2.1798 -4.3596
C 0 0 -4.3596
C 6.57259 13.0205 -2.19428
C 4.38851 2.23818 -2.24295
Si 5.42667 1.12257 -3.3257
Si 7.4868 1.02838 -1.07789
Si 5.52513 3.33793 -1.14377
Si 7.62563 3.35699 -3.30729
C 6.5394 2.1798 -4.3596
C 4.3596 0 -4.3596
C 10.8616 0.0116249 -2.26615
C 8.55599 2.21637 -2.18105
Si 9.7387 1.09069 -3.29631
Si 12.0197 1.08028 -1.24298
Si 9.82769 3.28406 -1.28991
Si 11.984 3.28851 -3.37183
C 10.899 2.1798 -4.3596
C 8.7192 0 -4.3596
C 2.17685 4.42038 -2.24425
C 13.034 6.67809 -2.2313
Si 1.08041 5.4727 -3.26427
Si 3.21594 5.43779 -1.13617
Si 1.0181 7.6158 -1.04418
Si 3.24508 7.63401 -3.26668
C 2.1798 6.5394 -4.3596
C 0 4.3596 -4.3596
C 6.5394 6.5394 -4.3596
C 6.59931 4.46485 -2.1677
C 4.29948 6.48966 -2.24806
C 4.3596 4.3596 -4.3596
Si 5.52679 5.52166 -3.24579
Si 7.72551 5.4966 -1.1551
Si 5.39136 7.70307 -1.15824
Si 7.61372 7.71715 -3.32075
C 10.899 6.5394 -4.3596
C 8.7192 4.3596 -4.3596
C 10.9622 4.33654 -2.3366
C 8.77913 6.59979 -2.17748
Si 9.86816 5.43369 -3.35614
Si 12.0021 5.50914 -1.20869
Si 9.90391 7.7058 -1.07937
Si 11.9762 7.68782 -3.26804
C 2.1798 10.899 -4.3596
C 0 8.7192 -4.3596
C 2.14337 8.75366 -2.2078
C 12.9919 10.9668 -2.20763
Si 1.05554 9.81105 -3.28798
Si 3.19415 9.8754 -1.17599
Si 1.09811 12.0616 -1.21366
Si 3.24927 11.9674 -3.29362
C 6.5394 10.899 -4.3596
C 4.3596 8.7192 -4.3596
C 6.5625 8.75802 -2.23334
C 4.34401 10.8958 -2.22469
Si 5.42915 9.83894 -3.30918
Si 7.71689 9.91363 -1.1212
Si 5.47467 11.9401 -1.13514
Si 7.56855 11.9618 -3.33251
C 10.899 10.899 -4.3596
C 8.7192 8.7192 -4.3596
C 10.8705 8.80837 -2.19044
C 8.68338 10.9698 -2.25001
Si 9.76676 9.84672 -3.30794
Si 11.9327 9.90031 -1.10192
Si 9.80651 12.1032 -1.08607
Si 11.9338 12.0044 -3.32452
C 0.307622 0.383087 -0.342916
C 2.14597 2.22462 -0.158959
C 4.50185 0.261291 -0.295359
C 6.2627 1.94096 -0.227194
C 9.0882 0.443963 -0.347137
C 11.0252 2.21864 -0.308194
C 12.859 4.1352 -0.395587
C 2.0661 6.40217 -0.26074
C 4.07291 4.06257 -0.279039
C 6.969 7.0423 -0.47068
C 8.94572 4.45572 -0.283037
C 10.8337 6.28475 -0.289502
C 0.136221 9.02983 -0.222527
C 1.88471 10.7335 -0.366469
C 4.50701 9.0369 -0.255989
C 6.35951 10.7417 -0.168107
C 8.84176 8.84386 0.00585796
C 10.6157 10.7148 -0.06074
C 3.31677 3.12092 0.568967
C 11.925 3.31156 0.367295
Si 10.0785 5.27496 1.07632
C 5.52719 9.79689 0.544768
C 5.24264 1.20428 0.60074
C 11.2978 3.87976 1.82133
Si 4.2762 2.10009 2.01936
C 9.7737 9.90664 0.836985
C 0.988875 9.94317 0.361291
C 1.09575 1.32099 0.433941
C 7.77211 7.83355 0.530215
C 6.49829 8.82268 1.22241
C 8.49886 6.75043 1.57148
C 9.9654 1.31554 0.350291
