174
Atoms. Timestep: 10000000
4 0 0 -8.7192
4 2.1798 0 -6.5394
4 0 2.1798 -6.5394
4 2.1798 2.1798 -8.7192
3 1.0899 1.0899 -7.6293
3 3.2697 1.0899 -5.4495
3 1.0899 3.2697 -5.4495
3 3.2697 3.2697 -7.6293
4 4.3596 0 -8.7192
4 6.5394 0 -6.5394
4 4.3596 2.1798 -6.5394
4 6.5394 2.1798 -8.7192
3 5.4495 1.0899 -7.6293
3 7.6293 1.0899 -5.4495
3 5.4495 3.2697 -5.4495
3 7.6293 3.2697 -7.6293
4 8.7192 0 -8.7192
4 10.899 0 -6.5394
4 8.7192 2.1798 -6.5394
4 10.899 2.1798 -8.7192
3 9.8091 1.0899 -7.6293
3 11.9889 1.0899 -5.4495
3 9.8091 3.2697 -5.4495
3 11.9889 3.2697 -7.6293
4 0 4.3596 -8.7192
4 2.1798 4.3596 -6.5394
4 0 6.5394 -6.5394
4 2.1798 6.5394 -8.7192
3 1.0899 5.4495 -7.6293
3 3.2697 5.4495 -5.4495
3 1.0899 7.6293 -5.4495
3 3.2697 7.6293 -7.6293
4 4.3596 4.3596 -8.7192
4 6.5394 4.3596 -6.5394
4 4.3596 6.5394 -6.5394
4 6.5394 6.5394 -8.7192
3 5.4495 5.4495 -7.6293
3 7.6293 5.4495 -5.4495
3 5.4495 7.6293 -5.4495
3 7.6293 7.6293 -7.6293
4 8.7192 4.3596 -8.7192
4 10.899 4.3596 -6.5394
4 8.7192 6.5394 -6.5394
4 10.899 6.5394 -8.7192
3 9.8091 5.4495 -7.6293
3 11.9889 5.4495 -5.4495
3 9.8091 7.6293 -5.4495
3 11.9889 7.6293 -7.6293
4 0 8.7192 -8.7192
4 2.1798 8.7192 -6.5394
4 0 10.899 -6.5394
4 2.1798 10.899 -8.7192
3 1.0899 9.8091 -7.6293
3 3.2697 9.8091 -5.4495
3 1.0899 11.9889 -5.4495
3 3.2697 11.9889 -7.6293
4 4.3596 8.7192 -8.7192
4 6.5394 8.7192 -6.5394
4 4.3596 10.899 -6.5394
4 6.5394 10.899 -8.7192
3 5.4495 9.8091 -7.6293
3 7.6293 9.8091 -5.4495
3 5.4495 11.9889 -5.4495
3 7.6293 11.9889 -7.6293
4 8.7192 8.7192 -8.7192
4 10.899 8.7192 -6.5394
4 8.7192 10.899 -6.5394
4 10.899 10.899 -8.7192
3 9.8091 9.8091 -7.6293
3 11.9889 9.8091 -5.4495
3 9.8091 11.9889 -5.4495
3 11.9889 11.9889 -7.6293
2 2.2272 13.0523 -2.16359
2 0.0634333 2.18289 -2.17423
1 1.08856 1.09966 -3.26318
1 3.30347 1.1354 -1.17694
1 1.13722 3.23496 -1.10991
1 3.24949 3.2698 -3.36608
4 2.1798 2.1798 -4.3596
4 0 0 -4.3596
2 6.55531 0.0197255 -2.2073
2 4.31081 2.18193 -2.33581
1 5.40086 1.07873 -3.31293
1 7.71716 1.09157 -1.1225
1 5.39098 3.34984 -1.2472
1 7.6492 3.25276 -3.20322
4 6.5394 2.1798 -4.3596
4 4.3596 0 -4.3596
2 10.9561 13.0419 -2.20209
2 8.81411 2.13899 -2.09784
1 9.8212 1.1204 -3.31499
1 12.0105 1.12583 -0.968299
1 9.89871 3.32692 -0.928487
1 11.9478 3.25864 -3.24553
4 10.899 2.1798 -4.3596
4 8.7192 0 -4.3596
2 2.12946 4.30977 -2.26781
2 13.0451 6.62357 -2.20921
1 1.05317 5.52152 -3.33881
1 3.26725 5.49368 -1.20561
1 1.07297 7.59106 -1.08347
1 3.33741 7.61549 -3.33464
4 2.1798 6.5394 -4.3596
4 0 4.3596 -4.3596
4 6.5394 6.5394 -4.3596
2 6.50192 4.3746 -2.21355
2 4.44745 6.5499 -2.17458
4 4.3596 4.3596 -4.3596
1 5.43528 5.47393 -3.35362
1 7.71209 5.39311 -1.06706
1 5.56355 7.6333 -1.06609
1 7.61188 7.63956 -3.28604
4 10.899 6.5394 -4.3596
4 8.7192 4.3596 -4.3596
2 10.9011 4.34641 -2.11753
2 8.66945 6.4295 -2.18618
1 9.79127 5.46322 -3.2214
1 11.9993 5.44975 -0.94654
1 9.73378 7.60206 -1.08271
1 12.0072 7.65886 -3.29931
4 2.1798 10.899 -4.3596
4 0 8.7192 -4.3596
2 2.24313 8.71954 -2.27837
2 0.00874005 10.869 -2.27197
1 1.10243 9.84557 -3.31888
1 3.32768 9.85498 -1.09884
1 1.11035 11.9875 -1.14095
1 3.24437 11.9848 -3.275
4 6.5394 10.899 -4.3596
4 4.3596 8.7192 -4.3596
2 6.60583 8.68758 -2.06857
2 4.41696 10.993 -2.1693
1 5.45033 9.83424 -3.25922
1 7.66394 9.90079 -1.05637
1 5.5351 12.0032 -1.02525
1 7.63621 12.0386 -3.29513
4 10.899 10.899 -4.3596
4 8.7192 8.7192 -4.3596
2 10.9026 8.62317 -2.1931
2 8.68837 11.0168 -2.17339
1 9.76844 9.85549 -3.32321
1 11.9963 9.79697 -1.13232
1 9.81097 11.9534 -1.06628
1 11.9862 12.0184 -3.29272
2 12.8013 12.7464 -0.222066
2 2.52888 2.5678 -0.216893
2 4.60951 0.298898 -0.210012
2 6.30978 2.0991 -0.373021
2 8.69817 13.0698 0.0897179
2 10.5793 1.89395 -0.0241987
2 0.159139 4.32757 -0.175749
2 2.37234 6.71961 -0.239852
2 4.26581 4.45103 -0.0837697
2 6.29921 6.16769 -0.32187
2 9.00966 4.62738 0.00248763
2 10.6453 6.28158 -0.00775177
2 0.301797 9.00405 -0.282075
2 2.02788 10.7629 -0.218488
2 4.29431 8.43808 -0.0156097
2 6.9317 11.1994 -0.038017
2 9.06964 9.09629 -0.289416
2 10.899 10.8825 -0.0368092
2 3.35283 7.50828 0.603677
2 1.17174 9.82724 0.476694
2 5.53135 1.27587 0.576615
2 9.99314 9.87393 0.5106
2 3.38371 3.3824 0.671484
2 9.85047 5.45004 0.967962
2 4.55713 2.29458 1.43515
2 9.59963 0.965397 0.783335
2 11.9045 11.8614 0.628521
2 7.68132 12.1167 0.820865
2 5.50124 5.28658 0.489563
2 6.65731 0.318792 1.4476
