176
Atoms. Timestep: 10000000
4 0 0 -8.7192
4 2.1798 0 -6.5394
4 0 2.1798 -6.5394
4 2.1798 2.1798 -8.7192
3 1.0899 1.0899 -7.6293
3 3.2697 1.0899 -5.4495
3 1.0899 3.2697 -5.4495
3 3.2697 3.2697 -7.6293
4 4.3596 0 -8.7192
4 6.5394 0 -6.5394
4 4.3596 2.1798 -6.5394
4 6.5394 2.1798 -8.7192
3 5.4495 1.0899 -7.6293
3 7.6293 1.0899 -5.4495
3 5.4495 3.2697 -5.4495
3 7.6293 3.2697 -7.6293
4 8.7192 0 -8.7192
4 10.899 0 -6.5394
4 8.7192 2.1798 -6.5394
4 10.899 2.1798 -8.7192
3 9.8091 1.0899 -7.6293
3 11.9889 1.0899 -5.4495
3 9.8091 3.2697 -5.4495
3 11.9889 3.2697 -7.6293
4 0 4.3596 -8.7192
4 2.1798 4.3596 -6.5394
4 0 6.5394 -6.5394
4 2.1798 6.5394 -8.7192
3 1.0899 5.4495 -7.6293
3 3.2697 5.4495 -5.4495
3 1.0899 7.6293 -5.4495
3 3.2697 7.6293 -7.6293
4 4.3596 4.3596 -8.7192
4 6.5394 4.3596 -6.5394
4 4.3596 6.5394 -6.5394
4 6.5394 6.5394 -8.7192
3 5.4495 5.4495 -7.6293
3 7.6293 5.4495 -5.4495
3 5.4495 7.6293 -5.4495
3 7.6293 7.6293 -7.6293
4 8.7192 4.3596 -8.7192
4 10.899 4.3596 -6.5394
4 8.7192 6.5394 -6.5394
4 10.899 6.5394 -8.7192
3 9.8091 5.4495 -7.6293
3 11.9889 5.4495 -5.4495
3 9.8091 7.6293 -5.4495
3 11.9889 7.6293 -7.6293
4 0 8.7192 -8.7192
4 2.1798 8.7192 -6.5394
4 0 10.899 -6.5394
4 2.1798 10.899 -8.7192
3 1.0899 9.8091 -7.6293
3 3.2697 9.8091 -5.4495
3 1.0899 11.9889 -5.4495
3 3.2697 11.9889 -7.6293
4 4.3596 8.7192 -8.7192
4 6.5394 8.7192 -6.5394
4 4.3596 10.899 -6.5394
4 6.5394 10.899 -8.7192
3 5.4495 9.8091 -7.6293
3 7.6293 9.8091 -5.4495
3 5.4495 11.9889 -5.4495
3 7.6293 11.9889 -7.6293
4 8.7192 8.7192 -8.7192
4 10.899 8.7192 -6.5394
4 8.7192 10.899 -6.5394
4 10.899 10.899 -8.7192
3 9.8091 9.8091 -7.6293
3 11.9889 9.8091 -5.4495
3 9.8091 11.9889 -5.4495
3 11.9889 11.9889 -7.6293
2 2.20975 0.0669219 -2.11811
2 0.0828556 2.0555 -2.12182
1 1.07304 1.05869 -3.29066
1 3.40717 1.12338 -1.01627
1 1.16033 3.13392 -1.13511
1 3.26686 3.27688 -3.27287
4 2.1798 2.1798 -4.3596
4 0 0 -4.3596
2 6.53271 0.0636454 -2.22164
2 4.40272 2.19083 -2.20276
1 5.48742 1.11182 -3.32834
1 7.67297 1.0936 -1.22854
1 5.43931 3.3381 -1.12352
1 7.59974 3.29187 -3.28706
4 6.5394 2.1798 -4.3596
4 4.3596 0 -4.3596
2 10.8617 0.0169612 -2.32696
2 8.70299 2.2258 -2.22998
1 9.7752 1.12008 -3.33123
1 11.9282 1.06086 -1.14721
1 9.79174 3.29532 -1.16022
1 12.0213 3.22204 -3.32023
4 10.899 2.1798 -4.3596
4 8.7192 0 -4.3596
2 2.16102 4.40927 -2.21816
2 13.0698 6.51592 -2.30284
1 1.11684 5.40205 -3.27721
1 3.32149 5.49062 -1.17179
1 1.12215 7.66603 -1.1669
1 3.28914 7.66629 -3.30862
4 2.1798 6.5394 -4.3596
4 0 4.3596 -4.3596
4 6.5394 6.5394 -4.3596
2 6.53152 4.35196 -2.23169
2 4.43865 6.48089 -2.19717
4 4.3596 4.3596 -4.3596
1 5.44887 5.47473 -3.27119
1 7.64893 5.40438 -1.04232
1 5.57238 7.62087 -0.936354
1 7.67159 7.61678 -3.23005
4 10.899 6.5394 -4.3596
4 8.7192 4.3596 -4.3596
2 10.8867 4.31206 -2.21428
2 8.77048 6.50903 -2.18113
1 9.85863 5.40084 -3.29276
1 12.0521 5.36567 -1.1748
1 9.89647 7.54791 -1.18488
1 12.0385 7.6061 -3.31071
4 2.1798 10.899 -4.3596
4 0 8.7192 -4.3596
2 2.26758 8.71838 -2.29551
2 0.0202753 10.8985 -2.28081
1 1.12338 9.80726 -3.3452
1 3.35974 9.85196 -1.14781
1 1.09437 11.9559 -1.0809
1 3.31513 11.9754 -3.25837
4 6.5394 10.899 -4.3596
4 4.3596 8.7192 -4.3596
2 6.6117 8.6764 -2.08477
2 4.44181 10.9163 -2.17348
1 5.49798 9.77297 -3.28848
1 7.72492 9.70187 -0.945036
1 5.50212 12.0063 -1.02408
1 7.57723 11.9795 -3.28023
4 10.899 10.899 -4.3596
4 8.7192 8.7192 -4.3596
2 10.8983 8.73251 -2.35891
2 8.78705 10.8457 -2.23346
1 9.75985 9.82911 -3.35073
1 11.9966 9.79635 -1.19982
1 9.83916 12.0105 -1.32052
1 12.0182 11.955 -3.35647
2 12.813 12.7396 -0.157426
2 2.48119 2.49953 -0.0725549
2 4.22253 12.8338 -0.103943
2 6.87855 2.51456 -0.239894
2 8.73185 12.9853 -0.279231
2 10.4323 1.86787 -0.374415
2 0.488867 4.58012 -0.364406
2 2.17704 6.63186 -0.235568
2 4.15788 4.2828 -0.234074
2 6.81605 6.59217 -0.0525384
2 8.66793 4.06151 -0.0653539
2 11.2415 6.71063 -0.307919
2 12.9381 8.5753 -0.26708
2 2.52946 11.134 -0.00944415
2 4.06757 8.41696 -0.327972
2 6.95933 11.2249 -0.139983
2 8.63979 8.2587 -0.0559919
2 11.096 11.0693 -0.387701
2 7.79829 3.14818 0.738276
2 9.5296 1.05252 0.462411
2 12.112 7.64756 0.426717
2 7.79493 12.1135 0.561191
2 3.35855 12.0668 0.704503
2 8.34293 1.79733 1.43896
2 7.86546 7.2943 0.758813
1 11.7994 11.8762 1.01229
2 3.27555 3.50692 0.756647
2 3.14662 7.66312 0.423212
2 10.5178 0.105565 1.3746
2 7.43549 0.339803 1.44367
2 1.36757 5.35428 0.415954
2 2.33325 4.62912 1.5755
