ITEM: TIMESTEP
0
ITEM: NUMBER OF ATOMS
512
ITEM: BOX BOUNDS pp pp pp
0.0000000000000000e+00 1.7440000000000001e+01
0.0000000000000000e+00 1.7440000000000001e+01
0.0000000000000000e+00 1.7440000000000001e+01
ITEM: ATOMS id type xs ys zs
1 2 0 0 0
2 2 0.125 0 0.125
3 2 0 0.125 0.125
4 2 0.125 0.125 0
5 1 0.0625 0.0625 0.0625
6 1 0.1875 0.0625 0.1875
7 1 0.0625 0.1875 0.1875
8 1 0.1875 0.1875 0.0625
9 2 0.25 0 0
10 2 0.375 0 0.125
11 2 0.25 0.125 0.125
12 2 0.375 0.125 0
13 1 0.3125 0.0625 0.0625
14 1 0.4375 0.0625 0.1875
15 1 0.3125 0.1875 0.1875
16 1 0.4375 0.1875 0.0625
17 2 0.5 0 0
18 2 0.625 0 0.125
19 2 0.5 0.125 0.125
20 2 0.625 0.125 0
21 1 0.5625 0.0625 0.0625
22 1 0.6875 0.0625 0.1875
23 1 0.5625 0.1875 0.1875
24 1 0.6875 0.1875 0.0625
25 2 0.75 0 0
26 2 0.875 0 0.125
27 2 0.75 0.125 0.125
28 2 0.875 0.125 0
29 1 0.8125 0.0625 0.0625
30 1 0.9375 0.0625 0.1875
31 1 0.8125 0.1875 0.1875
32 1 0.9375 0.1875 0.0625
33 2 0 0.25 0
34 2 0.125 0.25 0.125
35 2 0 0.375 0.125
36 2 0.125 0.375 0
37 1 0.0625 0.3125 0.0625
38 1 0.1875 0.3125 0.1875
39 1 0.0625 0.4375 0.1875
40 1 0.1875 0.4375 0.0625
41 2 0.25 0.25 0
42 2 0.375 0.25 0.125
43 2 0.25 0.375 0.125
44 2 0.375 0.375 0
45 1 0.3125 0.3125 0.0625
46 1 0.4375 0.3125 0.1875
47 1 0.3125 0.4375 0.1875
48 1 0.4375 0.4375 0.0625
49 2 0.5 0.25 0
50 2 0.625 0.25 0.125
51 2 0.5 0.375 0.125
52 2 0.625 0.375 0
53 1 0.5625 0.3125 0.0625
54 1 0.6875 0.3125 0.1875
55 1 0.5625 0.4375 0.1875
56 1 0.6875 0.4375 0.0625
57 2 0.75 0.25 0
58 2 0.875 0.25 0.125
59 2 0.75 0.375 0.125
60 2 0.875 0.375 0
61 1 0.8125 0.3125 0.0625
62 1 0.9375 0.3125 0.1875
63 1 0.8125 0.4375 0.1875
64 1 0.9375 0.4375 0.0625
65 2 0 0.5 0
66 2 0.125 0.5 0.125
67 2 0 0.625 0.125
68 2 0.125 0.625 0
69 1 0.0625 0.5625 0.0625
70 1 0.1875 0.5625 0.1875
71 1 0.0625 0.6875 0.1875
72 1 0.1875 0.6875 0.0625
73 2 0.25 0.5 0
74 2 0.375 0.5 0.125
75 2 0.25 0.625 0.125
76 2 0.375 0.625 0
77 1 0.3125 0.5625 0.0625
78 1 0.4375 0.5625 0.1875
79 1 0.3125 0.6875 0.1875
80 1 0.4375 0.6875 0.0625
81 2 0.5 0.5 0
82 2 0.625 0.5 0.125
83 2 0.5 0.625 0.125
84 2 0.625 0.625 0
85 1 0.5625 0.5625 0.0625
86 1 0.6875 0.5625 0.1875
87 1 0.5625 0.6875 0.1875
88 1 0.6875 0.6875 0.0625
89 2 0.75 0.5 0
90 2 0.875 0.5 0.125
91 2 0.75 0.625 0.125
92 2 0.875 0.625 0
93 1 0.8125 0.5625 0.0625
94 1 0.9375 0.5625 0.1875
95 1 0.8125 0.6875 0.1875
96 1 0.9375 0.6875 0.0625
97 2 0 0.75 0
98 2 0.125 0.75 0.125
99 2 0 0.875 0.125
100 2 0.125 0.875 0
101 1 0.0625 0.8125 0.0625
102 1 0.1875 0.8125 0.1875
103 1 0.0625 0.9375 0.1875
104 1 0.1875 0.9375 0.0625
105 2 0.25 0.75 0
106 2 0.375 0.75 0.125
107 2 0.25 0.875 0.125
108 2 0.375 0.875 0
109 1 0.3125 0.8125 0.0625
110 1 0.4375 0.8125 0.1875
111 1 0.3125 0.9375 0.1875
112 1 0.4375 0.9375 0.0625
113 2 0.5 0.75 0
114 2 0.625 0.75 0.125
115 2 0.5 0.875 0.125
116 2 0.625 0.875 0
117 1 0.5625 0.8125 0.0625
118 1 0.6875 0.8125 0.1875
119 1 0.5625 0.9375 0.1875
120 1 0.6875 0.9375 0.0625
121 2 0.75 0.75 0
122 2 0.875 0.75 0.125
123 2 0.75 0.875 0.125
124 2 0.875 0.875 0
125 1 0.8125 0.8125 0.0625
126 1 0.9375 0.8125 0.1875
127 1 0.8125 0.9375 0.1875
128 1 0.9375 0.9375 0.0625
129 2 0 0 0.25
130 2 0.125 0 0.375
131 2 0 0.125 0.375
132 2 0.125 0.125 0.25
133 1 0.0625 0.0625 0.3125
134 1 0.1875 0.0625 0.4375
135 1 0.0625 0.1875 0.4375
136 1 0.1875 0.1875 0.3125
137 2 0.25 0 0.25
138 2 0.375 0 0.375
139 2 0.25 0.125 0.375
140 2 0.375 0.125 0.25
141 1 0.3125 0.0625 0.3125
142 1 0.4375 0.0625 0.4375
143 1 0.3125 0.1875 0.4375
144 1 0.4375 0.1875 0.3125
145 2 0.5 0 0.25
146 2 0.625 0 0.375
147 2 0.5 0.125 0.375
148 2 0.625 0.125 0.25
149 1 0.5625 0.0625 0.3125
150 1 0.6875 0.0625 0.4375
151 1 0.5625 0.1875 0.4375
152 1 0.6875 0.1875 0.3125
153 2 0.75 0 0.25
154 2 0.875 0 0.375
155 2 0.75 0.125 0.375
156 2 0.875 0.125 0.25
157 1 0.8125 0.0625 0.3125
158 1 0.9375 0.0625 0.4375
159 1 0.8125 0.1875 0.4375
160 1 0.9375 0.1875 0.3125
161 2 0 0.25 0.25
162 2 0.125 0.25 0.375
163 2 0 0.375 0.375
164 2 0.125 0.375 0.25
165 1 0.0625 0.3125 0.3125
166 1 0.1875 0.3125 0.4375
167 1 0.0625 0.4375 0.4375
168 1 0.1875 0.4375 0.3125
169 2 0.25 0.25 0.25
170 2 0.375 0.25 0.375
171 2 0.25 0.375 0.375
172 2 0.375 0.375 0.25
173 1 0.3125 0.3125 0.3125
174 1 0.4375 0.3125 0.4375
175 1 0.3125 0.4375 0.4375
176 1 0.4375 0.4375 0.3125
177 2 0.5 0.25 0.25
178 2 0.625 0.25 0.375
179 2 0.5 0.375 0.375
180 2 0.625 0.375 0.25
181 1 0.5625 0.3125 0.3125
182 1 0.6875 0.3125 0.4375
183 1 0.5625 0.4375 0.4375
184 1 0.6875 0.4375 0.3125
185 2 0.75 0.25 0.25
186 2 0.875 0.25 0.375
187 2 0.75 0.375 0.375
188 2 0.875 0.375 0.25
189 1 0.8125 0.3125 0.3125
190 1 0.9375 0.3125 0.4375
191 1 0.8125 0.4375 0.4375
192 1 0.9375 0.4375 0.3125
193 2 0 0.5 0.25
194 2 0.125 0.5 0.375
195 2 0 0.625 0.375
196 2 0.125 0.625 0.25
197 1 0.0625 0.5625 0.3125
198 1 0.1875 0.5625 0.4375
199 1 0.0625 0.6875 0.4375
200 1 0.1875 0.6875 0.3125
201 2 0.25 0.5 0.25
202 2 0.375 0.5 0.375
203 2 0.25 0.625 0.375
204 2 0.375 0.625 0.25
205 1 0.3125 0.5625 0.3125
206 1 0.4375 0.5625 0.4375
207 1 0.3125 0.6875 0.4375
208 1 0.4375 0.6875 0.3125
209 2 0.5 0.5 0.25
210 2 0.625 0.5 0.375
211 2 0.5 0.625 0.375
212 2 0.625 0.625 0.25
213 1 0.5625 0.5625 0.3125
214 1 0.6875 0.5625 0.4375
215 1 0.5625 0.6875 0.4375
216 1 0.6875 0.6875 0.3125
217 2 0.75 0.5 0.25
218 2 0.875 0.5 0.375
219 2 0.75 0.625 0.375
220 2 0.875 0.625 0.25
221 1 0.8125 0.5625 0.3125
222 1 0.9375 0.5625 0.4375
223 1 0.8125 0.6875 0.4375
224 1 0.9375 0.6875 0.3125
225 2 0 0.75 0.25
226 2 0.125 0.75 0.375
227 2 0 0.875 0.375
228 2 0.125 0.875 0.25
229 1 0.0625 0.8125 0.3125
230 1 0.1875 0.8125 0.4375
231 1 0.0625 0.9375 0.4375
232 1 0.1875 0.9375 0.3125
233 2 0.25 0.75 0.25
234 2 0.375 0.75 0.375
235 2 0.25 0.875 0.375
236 2 0.375 0.875 0.25
237 1 0.3125 0.8125 0.3125
238 1 0.4375 0.8125 0.4375
239 1 0.3125 0.9375 0.4375
240 1 0.4375 0.9375 0.3125
241 2 0.5 0.75 0.25
242 2 0.625 0.75 0.375
243 2 0.5 0.875 0.375
244 2 0.625 0.875 0.25
245 1 0.5625 0.8125 0.3125
246 1 0.6875 0.8125 0.4375
247 1 0.5625 0.9375 0.4375
248 1 0.6875 0.9375 0.3125
249 2 0.75 0.75 0.25
250 2 0.875 0.75 0.375
251 2 0.75 0.875 0.375
252 2 0.875 0.875 0.25
253 1 0.8125 0.8125 0.3125
254 1 0.9375 0.8125 0.4375
255 1 0.8125 0.9375 0.4375
256 1 0.9375 0.9375 0.3125
257 2 0 0 0.5
258 2 0.125 0 0.625
259 2 0 0.125 0.625
260 2 0.125 0.125 0.5
261 1 0.0625 0.0625 0.5625
262 1 0.1875 0.0625 0.6875
263 1 0.0625 0.1875 0.6875
264 1 0.1875 0.1875 0.5625
265 2 0.25 0 0.5
266 2 0.375 0 0.625
267 2 0.25 0.125 0.625
268 2 0.375 0.125 0.5
269 1 0.3125 0.0625 0.5625
270 1 0.4375 0.0625 0.6875
271 1 0.3125 0.1875 0.6875
272 1 0.4375 0.1875 0.5625
273 2 0.5 0 0.5
274 2 0.625 0 0.625
275 2 0.5 0.125 0.625
276 2 0.625 0.125 0.5
277 1 0.5625 0.0625 0.5625
278 1 0.6875 0.0625 0.6875
279 1 0.5625 0.1875 0.6875
280 1 0.6875 0.1875 0.5625
281 2 0.75 0 0.5
282 2 0.875 0 0.625
283 2 0.75 0.125 0.625
284 2 0.875 0.125 0.5
285 1 0.8125 0.0625 0.5625
286 1 0.9375 0.0625 0.6875
287 1 0.8125 0.1875 0.6875
288 1 0.9375 0.1875 0.5625
289 2 0 0.25 0.5
290 2 0.125 0.25 0.625
291 2 0 0.375 0.625
292 2 0.125 0.375 0.5
293 1 0.0625 0.3125 0.5625
294 1 0.1875 0.3125 0.6875
295 1 0.0625 0.4375 0.6875
296 1 0.1875 0.4375 0.5625
297 2 0.25 0.25 0.5
298 2 0.375 0.25 0.625
299 2 0.25 0.375 0.625
300 2 0.375 0.375 0.5
301 1 0.3125 0.3125 0.5625
302 1 0.4375 0.3125 0.6875
303 1 0.3125 0.4375 0.6875
304 1 0.4375 0.4375 0.5625
305 2 0.5 0.25 0.5
306 2 0.625 0.25 0.625
307 2 0.5 0.375 0.625
308 2 0.625 0.375 0.5
309 1 0.5625 0.3125 0.5625
310 1 0.6875 0.3125 0.6875
311 1 0.5625 0.4375 0.6875
312 1 0.6875 0.4375 0.5625
313 2 0.75 0.25 0.5
314 2 0.875 0.25 0.625
315 2 0.75 0.375 0.625
316 2 0.875 0.375 0.5
317 1 0.8125 0.3125 0.5625
318 1 0.9375 0.3125 0.6875
319 1 0.8125 0.4375 0.6875
320 1 0.9375 0.4375 0.5625
321 2 0 0.5 0.5
322 2 0.125 0.5 0.625
323 2 0 0.625 0.625
324 2 0.125 0.625 0.5
325 1 0.0625 0.5625 0.5625
326 1 0.1875 0.5625 0.6875
327 1 0.0625 0.6875 0.6875
328 1 0.1875 0.6875 0.5625
329 2 0.25 0.5 0.5
330 2 0.375 0.5 0.625
331 2 0.25 0.625 0.625
332 2 0.375 0.625 0.5
333 1 0.3125 0.5625 0.5625
334 1 0.4375 0.5625 0.6875
335 1 0.3125 0.6875 0.6875
336 1 0.4375 0.6875 0.5625
337 2 0.5 0.5 0.5
338 2 0.625 0.5 0.625
339 2 0.5 0.625 0.625
340 2 0.625 0.625 0.5
341 1 0.5625 0.5625 0.5625
342 1 0.6875 0.5625 0.6875
343 1 0.5625 0.6875 0.6875
344 1 0.6875 0.6875 0.5625
345 2 0.75 0.5 0.5
346 2 0.875 0.5 0.625
347 2 0.75 0.625 0.625
348 2 0.875 0.625 0.5
349 1 0.8125 0.5625 0.5625
350 1 0.9375 0.5625 0.6875
351 1 0.8125 0.6875 0.6875
352 1 0.9375 0.6875 0.5625
353 2 0 0.75 0.5
354 2 0.125 0.75 0.625
355 2 0 0.875 0.625
356 2 0.125 0.875 0.5
357 1 0.0625 0.8125 0.5625
358 1 0.1875 0.8125 0.6875
359 1 0.0625 0.9375 0.6875
360 1 0.1875 0.9375 0.5625
361 2 0.25 0.75 0.5
362 2 0.375 0.75 0.625
363 2 0.25 0.875 0.625
364 2 0.375 0.875 0.5
365 1 0.3125 0.8125 0.5625
366 1 0.4375 0.8125 0.6875
367 1 0.3125 0.9375 0.6875
368 1 0.4375 0.9375 0.5625
369 2 0.5 0.75 0.5
370 2 0.625 0.75 0.625
371 2 0.5 0.875 0.625
372 2 0.625 0.875 0.5
373 1 0.5625 0.8125 0.5625
374 1 0.6875 0.8125 0.6875
375 1 0.5625 0.9375 0.6875
376 1 0.6875 0.9375 0.5625
377 2 0.75 0.75 0.5
378 2 0.875 0.75 0.625
379 2 0.75 0.875 0.625
380 2 0.875 0.875 0.5
381 1 0.8125 0.8125 0.5625
382 1 0.9375 0.8125 0.6875
383 1 0.8125 0.9375 0.6875
384 1 0.9375 0.9375 0.5625
385 2 0 0 0.75
386 2 0.125 0 0.875
387 2 0 0.125 0.875
388 2 0.125 0.125 0.75
389 1 0.0625 0.0625 0.8125
390 1 0.1875 0.0625 0.9375
391 1 0.0625 0.1875 0.9375
392 1 0.1875 0.1875 0.8125
393 2 0.25 0 0.75
394 2 0.375 0 0.875
395 2 0.25 0.125 0.875
396 2 0.375 0.125 0.75
397 1 0.3125 0.0625 0.8125
398 1 0.4375 0.0625 0.9375
399 1 0.3125 0.1875 0.9375
400 1 0.4375 0.1875 0.8125
401 2 0.5 0 0.75
402 2 0.625 0 0.875
403 2 0.5 0.125 0.875
404 2 0.625 0.125 0.75
405 1 0.5625 0.0625 0.8125
406 1 0.6875 0.0625 0.9375
407 1 0.5625 0.1875 0.9375
408 1 0.6875 0.1875 0.8125
409 2 0.75 0 0.75
410 2 0.875 0 0.875
411 2 0.75 0.125 0.875
412 2 0.875 0.125 0.75
413 1 0.8125 0.0625 0.8125
414 1 0.9375 0.0625 0.9375
415 1 0.8125 0.1875 0.9375
416 1 0.9375 0.1875 0.8125
417 2 0 0.25 0.75
418 2 0.125 0.25 0.875
419 2 0 0.375 0.875
420 2 0.125 0.375 0.75
421 1 0.0625 0.3125 0.8125
422 1 0.1875 0.3125 0.9375
423 1 0.0625 0.4375 0.9375
424 1 0.1875 0.4375 0.8125
425 2 0.25 0.25 0.75
426 2 0.375 0.25 0.875
427 2 0.25 0.375 0.875
428 2 0.375 0.375 0.75
429 1 0.3125 0.3125 0.8125
430 1 0.4375 0.3125 0.9375
431 1 0.3125 0.4375 0.9375
432 1 0.4375 0.4375 0.8125
433 2 0.5 0.25 0.75
434 2 0.625 0.25 0.875
435 2 0.5 0.375 0.875
436 2 0.625 0.375 0.75
437 1 0.5625 0.3125 0.8125
438 1 0.6875 0.3125 0.9375
439 1 0.5625 0.4375 0.9375
440 1 0.6875 0.4375 0.8125
441 2 0.75 0.25 0.75
442 2 0.875 0.25 0.875
443 2 0.75 0.375 0.875
444 2 0.875 0.375 0.75
445 1 0.8125 0.3125 0.8125
446 1 0.9375 0.3125 0.9375
447 1 0.8125 0.4375 0.9375
448 1 0.9375 0.4375 0.8125
449 2 0 0.5 0.75
450 2 0.125 0.5 0.875
451 2 0 0.625 0.875
452 2 0.125 0.625 0.75
453 1 0.0625 0.5625 0.8125
454 1 0.1875 0.5625 0.9375
455 1 0.0625 0.6875 0.9375
456 1 0.1875 0.6875 0.8125
457 2 0.25 0.5 0.75
458 2 0.375 0.5 0.875
459 2 0.25 0.625 0.875
460 2 0.375 0.625 0.75
461 1 0.3125 0.5625 0.8125
462 1 0.4375 0.5625 0.9375
463 1 0.3125 0.6875 0.9375
464 1 0.4375 0.6875 0.8125
465 2 0.5 0.5 0.75
466 2 0.625 0.5 0.875
467 2 0.5 0.625 0.875
468 2 0.625 0.625 0.75
469 1 0.5625 0.5625 0.8125
470 1 0.6875 0.5625 0.9375
471 1 0.5625 0.6875 0.9375
472 1 0.6875 0.6875 0.8125
473 2 0.75 0.5 0.75
474 2 0.875 0.5 0.875
475 2 0.75 0.625 0.875
476 2 0.875 0.625 0.75
477 1 0.8125 0.5625 0.8125
478 1 0.9375 0.5625 0.9375
479 1 0.8125 0.6875 0.9375
480 1 0.9375 0.6875 0.8125
481 2 0 0.75 0.75
482 2 0.125 0.75 0.875
483 2 0 0.875 0.875
484 2 0.125 0.875 0.75
485 1 0.0625 0.8125 0.8125
486 1 0.1875 0.8125 0.9375
487 1 0.0625 0.9375 0.9375
488 1 0.1875 0.9375 0.8125
489 2 0.25 0.75 0.75
490 2 0.375 0.75 0.875
491 2 0.25 0.875 0.875
492 2 0.375 0.875 0.75
493 1 0.3125 0.8125 0.8125
494 1 0.4375 0.8125 0.9375
495 1 0.3125 0.9375 0.9375
496 1 0.4375 0.9375 0.8125
497 2 0.5 0.75 0.75
498 2 0.625 0.75 0.875
499 2 0.5 0.875 0.875
500 2 0.625 0.875 0.75
501 1 0.5625 0.8125 0.8125
502 1 0.6875 0.8125 0.9375
503 1 0.5625 0.9375 0.9375
504 1 0.6875 0.9375 0.8125
505 2 0.75 0.75 0.75
506 2 0.875 0.75 0.875
507 2 0.75 0.875 0.875
508 2 0.875 0.875 0.75
509 1 0.8125 0.8125 0.8125
510 1 0.9375 0.8125 0.9375
511 1 0.8125 0.9375 0.9375
512 1 0.9375 0.9375 0.8125
ITEM: TIMESTEP
10
ITEM: NUMBER OF ATOMS
512
ITEM: BOX BOUNDS pp pp pp
3.2552027233183622e-03 1.7436744797276685e+01
3.2552027233183622e-03 1.7436744797276685e+01
3.2552027233183622e-03 1.7436744797276685e+01
ITEM: ATOMS id type xs ys zs
1 2 -0.000462998 0.000374746 0.000518991
2 2 0.124466 -0.000574966 0.124484
3 2 0.000308353 0.125087 0.125481
4 2 0.12533 0.124796 -0.000349108
5 1 0.0623263 0.0627103 0.0628681
6 1 0.187237 0.0623662 0.18715
7 1 0.0623253 0.187237 0.187778
8 1 0.187283 0.187803 0.0623044
9 2 0.2505 0.000492232 -0.000220913
10 2 0.375152 3.01237e-06 0.124654
11 2 0.250476 0.124798 0.125558
12 2 0.375521 0.125487 -0.000515254
13 1 0.312823 0.0627823 0.0623934
14 1 0.437204 0.0626361 0.187565
15 1 0.312308 0.187245 0.187879
16 1 0.437357 0.187512 0.0626605
17 2 0.500124 -1.20682e-05 -0.0001385
18 2 0.625116 -0.000213514 0.125261
19 2 0.499571 0.125024 0.124491
20 2 0.62508 0.124612 0.000194147
21 1 0.562837 0.0623638 0.0625963
22 1 0.687474 0.0621837 0.187231
23 1 0.562543 0.187185 0.187237
24 1 0.687452 0.187284 0.0623018
25 2 0.750089 -0.00049992 0.000269785
26 2 0.875099 -0.000129263 0.124756
27 2 0.750457 0.124614 0.124892
28 2 0.875158 0.125435 0.000556324
29 1 0.812511 0.0626498 0.062647
30 1 0.937284 0.0623431 0.187445
31 1 0.812723 0.187521 0.187338
32 1 0.9374 0.187336 0.0626106
33 2 -0.000416302 0.24993 0.000258846
34 2 0.124479 0.249432 0.124933
35 2 0.000160377 0.374938 0.125202
36 2 0.124516 0.375217 -0.000518813
37 1 0.0627164 0.312668 0.0628263
38 1 0.187633 0.312366 0.187241
39 1 0.0627027 0.437851 0.187374
40 1 0.18744 0.437182 0.0622176
41 2 0.249744 0.250325 -0.000539997
42 2 0.374945 0.25032 0.12526
43 2 0.249821 0.375218 0.12461
44 2 0.374455 0.37545 0.000193073
45 1 0.312794 0.312276 0.0627913
46 1 0.437479 0.31234 0.187347
47 1 0.312744 0.437588 0.187798
48 1 0.437519 0.437582 0.0628286
49 2 0.500465 0.249671 0.000308107
50 2 0.625204 0.249989 0.125246
51 2 0.499952 0.375241 0.125406
52 2 0.624429 0.37457 -0.000197969
53 1 0.562322 0.312661 0.0621791
54 1 0.687833 0.312569 0.187541
55 1 0.562188 0.437206 0.187345
56 1 0.687244 0.437194 0.0623127
57 2 0.750261 0.249775 2.79427e-05
58 2 0.874806 0.250431 0.124819
59 2 0.749749 0.374539 0.125571
60 2 0.875493 0.374442 0.00031119
61 1 0.812786 0.312599 0.0624426
62 1 0.937518 0.312542 0.187307
63 1 0.812554 0.437595 0.187729
64 1 0.937363 0.437665 0.0621434
65 2 0.000418696 0.500331 0.000450302
66 2 0.124905 0.50014 0.124608
67 2 4.03115e-05 0.625438 0.124966
68 2 0.125282 0.62477 -0.000284204
69 1 0.0628233 0.562571 0.0625179
70 1 0.187651 0.562785 0.187261
71 1 0.062553 0.687265 0.187334
72 1 0.18768 0.687157 0.0625813
73 2 0.250456 0.49962 -1.7844e-05
74 2 0.375228 0.499474 0.125544
75 2 0.250256 0.625356 0.124654
76 2 0.374429 0.624987 0.000458947
77 1 0.312505 0.562749 0.0623679
78 1 0.437337 0.562142 0.187399
79 1 0.312532 0.687626 0.187685
80 1 0.437245 0.687653 0.0624802
81 2 0.49962 0.499887 0.000209259
82 2 0.624532 0.500423 0.124657
83 2 0.499535 0.624698 0.124861
84 2 0.6254 0.624811 0.000407181
85 1 0.562147 0.56283 0.0623108
86 1 0.687728 0.562406 0.187531
87 1 0.562848 0.687567 0.187596
88 1 0.687427 0.687265 0.0621624
89 2 0.750164 0.499486 -0.000569747
90 2 0.874697 0.500215 0.124451
91 2 0.749899 0.624924 0.125282
92 2 0.874951 0.625365 -9.93558e-05
93 1 0.812433 0.562728 0.0623251
94 1 0.937287 0.56251 0.187652
95 1 0.812174 0.687145 0.187767
96 1 0.937517 0.687516 0.0621872
97 2 -3.28739e-05 0.75009 -0.000530469
98 2 0.124647 0.749506 0.125287
99 2 0.000327139 0.875234 0.125145
100 2 0.125103 0.874655 -7.43057e-05
101 1 0.0622132 0.812148 0.0622997
102 1 0.187647 0.812685 0.187869
103 1 0.0624347 0.937347 0.187469
104 1 0.187698 0.937818 0.0628738
105 2 0.249466 0.750247 0.000269395
106 2 0.374892 0.750444 0.124465
107 2 0.249817 0.874973 0.125309
108 2 0.374586 0.875466 -0.000447463
109 1 0.312635 0.812813 0.0621778
110 1 0.437374 0.812672 0.187741
111 1 0.312438 0.937446 0.18773
112 1 0.437548 0.937821 0.062711
113 2 0.500432 0.749596 -3.78978e-05
114 2 0.6252 0.749614 0.124592
115 2 0.500054 0.875185 0.125439
116 2 0.625549 0.874768 -0.000212712
117 1 0.562623 0.812156 0.0622444
118 1 0.687452 0.812585 0.187595
119 1 0.562408 0.937574 0.1874
120 1 0.687448 0.937422 0.0621708
121 2 0.750524 0.750063 -0.000437777
122 2 0.875087 0.749476 0.125383
123 2 0.74982 0.875243 0.125488
124 2 0.875436 0.875245 -0.000282896
125 1 0.812212 0.812582 0.0624611
126 1 0.937349 0.812198 0.187352
127 1 0.812872 0.937762 0.187484
128 1 0.937245 0.937543 0.0624536
129 2 -0.000339596 5.49172e-06 0.249779
130 2 0.125087 -0.000315953 0.374717
131 2 -0.000533137 0.125281 0.375205
132 2 0.124758 0.12464 0.250136
133 1 0.0623208 0.0628368 0.312301
134 1 0.187405 0.062355 0.437581
135 1 0.0621345 0.187529 0.437709
136 1 0.18725 0.187626 0.312295
137 2 0.250492 -0.000547155 0.249881
138 2 0.374861 -0.000298053 0.374705
139 2 0.249839 0.124893 0.375565
140 2 0.375097 0.125408 0.250278
141 1 0.312645 0.0624844 0.312626
142 1 0.43732 0.0628014 0.437574
143 1 0.312849 0.18772 0.437611
144 1 0.437612 0.187848 0.312393
145 2 0.500039 -0.000507209 0.250398
146 2 0.624957 0.000216476 0.374878
147 2 0.500418 0.125278 0.375411
148 2 0.62494 0.124822 0.24967
149 1 0.562374 0.0623734 0.312181
150 1 0.687325 0.0621333 0.437411
151 1 0.562853 0.187595 0.437187
152 1 0.687489 0.187292 0.312399
153 2 0.749593 2.269e-05 0.24955
154 2 0.874917 -0.000499127 0.375292
155 2 0.749906 0.125358 0.374428
156 2 0.874544 0.124863 0.250164
157 1 0.812177 0.0621455 0.312371
158 1 0.93743 0.0621482 0.437429
159 1 0.812193 0.187797 0.437535
160 1 0.937224 0.187264 0.312858
161 2 -0.000225234 0.250518 0.250404
162 2 0.125532 0.249931 0.375238
163 2 0.000125443 0.374603 0.375551
164 2 0.125249 0.375506 0.250015
165 1 0.0626151 0.312235 0.312372
166 1 0.187849 0.312421 0.43749
167 1 0.0623685 0.437577 0.437166
168 1 0.187688 0.43724 0.312821
169 2 0.249919 0.249845 0.25054
170 2 0.374667 0.249526 0.374783
171 2 0.24994 0.37481 0.374665
172 2 0.375358 0.375148 0.250031
173 1 0.312367 0.312493 0.312354
174 1 0.437772 0.312832 0.437285
175 1 0.312616 0.437733 0.437311
176 1 0.437344 0.437313 0.312274
177 2 0.499431 0.250239 0.250507
178 2 0.625208 0.250286 0.375475
179 2 0.499528 0.374932 0.374757
180 2 0.625479 0.375151 0.249687
181 1 0.562197 0.312494 0.312318
182 1 0.687805 0.312812 0.437597
183 1 0.562678 0.437336 0.437435
184 1 0.687536 0.437716 0.312821
185 2 0.750521 0.250055 0.249614
186 2 0.87549 0.249625 0.375429
187 2 0.750453 0.374686 0.375225
188 2 0.874874 0.375024 0.249618
189 1 0.812763 0.312327 0.31282
190 1 0.937302 0.312555 0.437631
191 1 0.812198 0.437309 0.437819
192 1 0.937829 0.43712 0.312708
193 2 0.000283035 0.500136 0.250153
194 2 0.125418 0.499689 0.375099
195 2 0.00056185 0.624817 0.374548
196 2 0.125249 0.625379 0.250487
197 1 0.0628145 0.562176 0.31262
198 1 0.187718 0.562502 0.437677
199 1 0.0628439 0.687798 0.437835
200 1 0.187779 0.687664 0.312213
201 2 0.250269 0.499799 0.250204
202 2 0.374908 0.499498 0.375346
203 2 0.249834 0.624717 0.374805
204 2 0.375134 0.625202 0.24973
205 1 0.31229 0.562606 0.312387
206 1 0.437828 0.562834 0.437534
207 1 0.312584 0.687836 0.437395
208 1 0.43713 0.687556 0.312677
209 2 0.500536 0.500082 0.250499
210 2 0.624607 0.500093 0.375178
211 2 0.49943 0.624922 0.375561
212 2 0.624666 0.625016 0.250002
213 1 0.562729 0.562461 0.312704
214 1 0.687789 0.562379 0.437816
215 1 0.562413 0.687479 0.437569
216 1 0.687273 0.687296 0.312348
217 2 0.750029 0.499544 0.249846
218 2 0.875099 0.499489 0.375472
219 2 0.749644 0.625294 0.374721
220 2 0.875105 0.625007 0.249582
221 1 0.812299 0.562116 0.312445
222 1 0.937497 0.562459 0.437154
223 1 0.812415 0.687706 0.437392
224 1 0.937178 0.687258 0.312388
225 2 1.92392e-05 0.749832 0.249975
226 2 0.124614 0.750516 0.374581
227 2 8.12608e-05 0.875068 0.374652
228 2 0.124812 0.874549 0.250413
229 1 0.0622712 0.812757 0.312857
230 1 0.187288 0.812685 0.437283
231 1 0.0622276 0.937656 0.437235
232 1 0.187486 0.937326 0.31248
233 2 0.250235 0.750247 0.250354
234 2 0.374598 0.750055 0.374464
235 2 0.249797 0.874628 0.375375
236 2 0.374439 0.875303 0.250096
237 1 0.312643 0.812716 0.312282
238 1 0.437784 0.812359 0.437737
239 1 0.312338 0.937219 0.437688
240 1 0.437377 0.937144 0.312245
241 2 0.50021 0.750236 0.250369
242 2 0.624516 0.750366 0.374901
243 2 0.499487 0.874593 0.375486
244 2 0.625009 0.875199 0.249663
245 1 0.562403 0.812777 0.312197
246 1 0.6878 0.812675 0.43716
247 1 0.562568 0.937749 0.437248
248 1 0.687514 0.937116 0.312452
249 2 0.750479 0.750196 0.250327
250 2 0.875104 0.750342 0.375517
251 2 0.749944 0.874561 0.374694
252 2 0.874963 0.874843 0.250302
253 1 0.812648 0.812727 0.312419
254 1 0.937131 0.812477 0.437151
255 1 0.812448 0.937746 0.437441
256 1 0.937727 0.937305 0.312754
257 2 0.000464763 -0.000344372 0.499954
258 2 0.125514 0.000399369 0.625164
259 2 -0.000356048 0.124785 0.625123
260 2 0.125318 0.124976 0.500168
261 1 0.0624317 0.0621201 0.56257
262 1 0.187509 0.0626499 0.687585
263 1 0.062377 0.187812 0.687276
264 1 0.1873 0.187339 0.562471
265 2 0.250547 7.43882e-05 0.499573
266 2 0.375044 -0.000330034 0.624979
267 2 0.250344 0.125196 0.624818
268 2 0.37528 0.125244 0.499439
269 1 0.312809 0.0627241 0.562371
270 1 0.437766 0.0624124 0.687664
271 1 0.312404 0.187415 0.687272
272 1 0.437336 0.187606 0.562863
273 2 0.500453 -0.000518132 0.499716
274 2 0.625082 -0.000181779 0.625572
275 2 0.500047 0.124684 0.625469
276 2 0.62483 0.124885 0.499521
277 1 0.562457 0.0621581 0.562334
278 1 0.687692 0.0625721 0.687569
279 1 0.562131 0.187474 0.687772
280 1 0.687159 0.187442 0.562237
281 2 0.750435 -0.00016755 0.499499
282 2 0.874974 1.03404e-05 0.624828
283 2 0.749983 0.124698 0.624568
284 2 0.874887 0.125317 0.500382
285 1 0.81287 0.0623833 0.562457
286 1 0.937497 0.0625595 0.687435
287 1 0.812367 0.187314 0.687629
288 1 0.937845 0.187113 0.562718
289 2 -0.000369884 0.250076 0.499679
290 2 0.125522 0.249615 0.624671
291 2 -0.000300909 0.374755 0.624944
292 2 0.124904 0.374903 0.500302
293 1 0.062207 0.312226 0.562782
294 1 0.187474 0.312642 0.687606
295 1 0.0627606 0.437701 0.687561
296 1 0.18729 0.437588 0.562747
297 2 0.249818 0.249484 0.499775
298 2 0.374551 0.250115 0.625426
299 2 0.249621 0.375547 0.624731
300 2 0.374523 0.375058 0.499954
301 1 0.312413 0.312123 0.56239
302 1 0.437698 0.312776 0.687382
303 1 0.312228 0.437835 0.687456
304 1 0.437706 0.437856 0.562608
305 2 0.499695 0.250082 0.499775
306 2 0.625264 0.249865 0.624871
307 2 0.500122 0.374847 0.624621
308 2 0.625091 0.375335 0.499715
309 1 0.562153 0.312443 0.562385
310 1 0.687732 0.31248 0.687456
311 1 0.562193 0.437826 0.687591
312 1 0.687858 0.437135 0.56269
313 2 0.750016 0.249552 0.500328
314 2 0.875213 0.249685 0.625031
315 2 0.749614 0.374885 0.624688
316 2 0.875142 0.375406 0.500181
317 1 0.812571 0.312398 0.562733
318 1 0.937472 0.312538 0.687321
319 1 0.812451 0.437259 0.687634
320 1 0.93767 0.437791 0.562274
321 2 -2.0462e-05 0.49945 0.499688
322 2 0.124483 0.500525 0.624815
323 2 -0.000354605 0.625009 0.625098
324 2 0.124785 0.625038 0.499806
325 1 0.0626782 0.562766 0.562283
326 1 0.187711 0.562312 0.68736
327 1 0.062414 0.687235 0.687832
328 1 0.18716 0.687789 0.562676
329 2 0.24957 0.499483 0.499779
330 2 0.374958 0.499868 0.624773
331 2 0.250131 0.624476 0.625002
332 2 0.374426 0.625235 0.499865
333 1 0.312529 0.562483 0.562437
334 1 0.43762 0.562822 0.687538
335 1 0.312794 0.687783 0.687598
336 1 0.437741 0.687653 0.562414
337 2 0.500224 0.500485 0.499988
338 2 0.625 0.500279 0.625578
339 2 0.499897 0.624601 0.624998
340 2 0.624455 0.625517 0.49987
341 1 0.562352 0.562387 0.562836
342 1 0.687876 0.562856 0.687348
343 1 0.562146 0.687265 0.687474
344 1 0.687384 0.687254 0.562809
345 2 0.749751 0.499972 0.499909
346 2 0.875459 0.499906 0.625061
347 2 0.750154 0.62499 0.625249
348 2 0.875507 0.625215 0.500566
349 1 0.812757 0.562343 0.562272
350 1 0.937794 0.562126 0.687857
351 1 0.812802 0.687814 0.687569
352 1 0.937824 0.687499 0.562615
353 2 -0.000453339 0.750424 0.500305
354 2 0.125147 0.749895 0.624467
355 2 -0.000554213 0.874857 0.625504
356 2 0.125524 0.874503 0.500134
357 1 0.0622989 0.812584 0.562728
358 1 0.187807 0.812857 0.687797
359 1 0.0627682 0.937806 0.687838
360 1 0.187495 0.937126 0.562233
361 2 0.249955 0.749607 0.500117
362 2 0.374591 0.750431 0.625091
363 2 0.249731 0.874488 0.624685
364 2 0.374506 0.875404 0.500183
365 1 0.31253 0.812741 0.562748
366 1 0.437858 0.812283 0.687209
367 1 0.312678 0.937144 0.687291
368 1 0.437142 0.937671 0.562125
369 2 0.499713 0.749605 0.499948
370 2 0.624948 0.749864 0.625418
371 2 0.500366 0.875545 0.625515
372 2 0.624639 0.874983 0.5004
373 1 0.56238 0.812469 0.562202
374 1 0.687359 0.812785 0.687784
375 1 0.56223 0.937709 0.687143
376 1 0.687766 0.937324 0.562634
377 2 0.749846 0.749955 0.500465
378 2 0.875517 0.749852 0.62452
379 2 0.750173 0.875138 0.625368
380 2 0.874784 0.875193 0.500423
381 1 0.812371 0.812407 0.562139
382 1 0.937796 0.812702 0.687726
383 1 0.812546 0.937772 0.687598
384 1 0.937239 0.937599 0.5625
385 2 -0.000112498 -0.000557207 0.750095
386 2 0.125404 -0.00029462 0.874641
387 2 0.000220265 0.125564 0.875091
388 2 0.125195 0.125258 0.75032
389 1 0.062544 0.0626459 0.812368
390 1 0.187384 0.0626152 0.937516
391 1 0.0627687 0.187747 0.937754
392 1 0.187787 0.187404 0.812769
393 2 0.249512 0.000368296 0.749709
394 2 0.375013 0.000397841 0.87501
395 2 0.250228 0.125395 0.875325
396 2 0.37469 0.125426 0.74976
397 1 0.312307 0.0621668 0.812395
398 1 0.437362 0.0628484 0.937539
399 1 0.312416 0.187551 0.937603
400 1 0.437168 0.187828 0.812834
401 2 0.500488 0.000403016 0.749907
402 2 0.624825 -0.000236941 0.874484
403 2 0.500029 0.12471 0.875185
404 2 0.625473 0.12515 0.749477
405 1 0.562776 0.0627124 0.812567
406 1 0.687486 0.0623251 0.937722
407 1 0.562585 0.187825 0.937317
408 1 0.687673 0.187433 0.812323
409 2 0.75007 0.000511227 0.74976
410 2 0.874592 0.000462344 0.875184
411 2 0.749832 0.125433 0.874559
412 2 0.874822 0.124485 0.750569
413 1 0.812754 0.062847 0.812146
414 1 0.937627 0.0624934 0.937282
415 1 0.812308 0.187811 0.937293
416 1 0.937199 0.187642 0.812428
417 2 -0.000508545 0.249497 0.749756
418 2 0.124669 0.249976 0.875304
419 2 -0.000124582 0.374425 0.875302
420 2 0.124818 0.3755 0.750272
421 1 0.0623354 0.312452 0.812627
422 1 0.187515 0.312527 0.937157
423 1 0.0624325 0.437257 0.937803
424 1 0.187648 0.43779 0.812666
425 2 0.250177 0.249937 0.749755
426 2 0.374646 0.250505 0.874844
427 2 0.249938 0.375036 0.874951
428 2 0.375399 0.374465 0.749683
429 1 0.312747 0.312303 0.812698
430 1 0.437498 0.31266 0.937658
431 1 0.312726 0.437584 0.937627
432 1 0.437426 0.437206 0.812649
433 2 0.499504 0.249759 0.749606
434 2 0.624993 0.249502 0.875157
435 2 0.499903 0.374921 0.874722
436 2 0.62556 0.37461 0.74999
437 1 0.562767 0.312798 0.812879
438 1 0.687724 0.312304 0.937174
439 1 0.562758 0.43761 0.937174
440 1 0.687252 0.437223 0.81285
441 2 0.749517 0.249822 0.749848
442 2 0.874431 0.249466 0.875428
443 2 0.750268 0.375172 0.874475
444 2 0.874564 0.375079 0.750273
445 1 0.812684 0.312615 0.812374
446 1 0.937192 0.312451 0.937455
447 1 0.812857 0.437564 0.937158
448 1 0.9374 0.437234 0.812172
449 2 0.000426601 0.499434 0.749453
450 2 0.125485 0.499476 0.875168
451 2 0.000251901 0.624844 0.874817
452 2 0.12541 0.624846 0.749853
453 1 0.0623986 0.562451 0.812652
454 1 0.187785 0.562215 0.937236
455 1 0.0625464 0.687304 0.93781
456 1 0.1874 0.687382 0.81241
457 2 0.249708 0.500352 0.750201
458 2 0.375209 0.499554 0.875097
459 2 0.249942 0.625292 0.875011
460 2 0.375283 0.625197 0.750162
461 1 0.312767 0.562433 0.8127
462 1 0.437366 0.562221 0.937228
463 1 0.312343 0.687781 0.937679
464 1 0.437387 0.687629 0.812177
465 2 0.499742 0.499567 0.749702
466 2 0.625282 0.499683 0.875315
467 2 0.500014 0.624791 0.87537
468 2 0.624737 0.624425 0.749592
469 1 0.562724 0.562509 0.812492
470 1 0.687197 0.562817 0.937335
471 1 0.56258 0.687837 0.937858
472 1 0.68723 0.687232 0.812818
473 2 0.750438 0.500508 0.749844
474 2 0.874586 0.499988 0.874753
475 2 0.750531 0.625378 0.874554
476 2 0.874793 0.624912 0.750248
477 1 0.81256 0.562135 0.812542
478 1 0.937138 0.562323 0.937511
479 1 0.8127 0.687575 0.937234
480 1 0.937358 0.687813 0.812458
481 2 -0.000536215 0.750141 0.750488
482 2 0.124642 0.750098 0.87515
483 2 7.51801e-05 0.875389 0.875336
484 2 0.124439 0.87527 0.750197
485 1 0.0624659 0.81257 0.812881
486 1 0.187453 0.812806 0.937314
487 1 0.0627228 0.937824 0.937423
488 1 0.187126 0.937516 0.8124
489 2 0.250228 0.749506 0.750559
490 2 0.375181 0.750124 0.875166
491 2 0.249897 0.875157 0.874574
492 2 0.374799 0.874937 0.749624
493 1 0.312515 0.812243 0.812156
494 1 0.437867 0.812509 0.937426
495 1 0.312744 0.937503 0.937448
496 1 0.437543 0.937265 0.812724
497 2 0.500213 0.750565 0.750421
498 2 0.624926 0.749541 0.874625
499 2 0.500148 0.875354 0.874436
500 2 0.624584 0.8752 0.749594
501 1 0.562501 0.812807 0.812175
502 1 0.687245 0.812568 0.937838
503 1 0.562839 0.937703 0.937522
504 1 0.687271 0.937752 0.812542
505 2 0.749466 0.750452 0.750316
506 2 0.87536 0.749886 0.875105
507 2 0.749736 0.875043 0.875501
508 2 0.8747 0.874827 0.750394
509 1 0.812674 0.812823 0.812778
510 1 0.937486 0.812164 0.937124
511 1 0.812348 0.937655 0.937529
512 1 0.937561 0.937164 0.812857
ITEM: TIMESTEP
20
ITEM: NUMBER OF ATOMS
512
ITEM: BOX BOUNDS pp pp pp
1.2688251170592579e-02 1.7427311748829410e+01
1.2688251170592579e-02 1.7427311748829410e+01
1.2688251170592579e-02 1.7427311748829410e+01
ITEM: ATOMS id type xs ys zs