424
Atoms. Timestep: 0
1 1.09 0.487463 6.33702
2 2.18 0 4.87463
2 0 0.974926 2.92478
1 3.27 0.487463 1.46239
1 3.27 1.46239 4.38717
1 1.09 2.43731 2.43731
2 0 0 0
2 2.18 1.94985 0.974926
1 3.27 3.41224 0.487463
2 0 0 9.74926
2 2.18 0.974926 7.79941
2 0 2.92478 8.77433
1 1.09 1.46239 9.26179
1 3.27 2.43731 7.31194
1 1.09 4.38717 8.28687
2 0 1.94985 5.84955
2 2.18 2.92478 3.8997
2 2.18 3.8997 6.82448
2 0 4.87463 4.87463
1 1.09 3.41224 5.36209
1 3.27 4.38717 3.41224
1 3.27 5.36209 6.33702
1 1.09 6.33702 4.38717
2 0 3.8997 1.94985
2 2.18 4.87463 0
2 2.18 5.84955 2.92478
2 0 6.82448 0.974926
1 1.09 5.36209 1.46239
1 3.27 7.31194 2.43731
1 1.09 8.28687 0.487463
2 2.18 4.87463 9.74926
1 3.27 6.33702 9.26179
2 0 5.84955 7.79941
2 2.18 6.82448 5.84955
2 2.18 7.79941 8.77433
2 0 8.77433 6.82448
1 1.09 7.31194 7.31194
1 3.27 8.28687 5.36209
1 3.27 9.26179 8.28687
1 1.09 10.2367 6.33702
2 0 7.79941 3.8997
2 2.18 8.77433 1.94985
2 2.18 9.74926 4.87463
2 0 10.7242 2.92478
1 1.09 9.26179 3.41224
1 3.27 10.2367 1.46239
1 3.27 11.2116 4.38717
1 1.09 12.1866 2.43731
2 0 9.74926 0
2 2.18 11.6991 0.974926
1 3.27 13.1615 0.487463
2 0 9.74926 9.74926
2 2.18 10.7242 7.79941
2 0 12.674 8.77433
1 1.09 11.2116 9.26179
1 3.27 12.1866 7.31194
1 1.09 14.1364 8.28687
2 0 11.6991 5.84955
2 2.18 12.674 3.8997
2 2.18 13.649 6.82448
2 0 14.6239 4.87463
1 1.09 13.1615 5.36209
1 3.27 14.1364 3.41224
1 3.27 15.1113 6.33702
1 1.09 16.0863 4.38717
2 0 13.649 1.94985
2 2.18 14.6239 0
2 2.18 15.5988 2.92478
2 0 16.5737 0.974926
1 1.09 15.1113 1.46239
1 3.27 17.0612 2.43731
1 1.09 18.0361 0.487463
2 2.18 14.6239 9.74926
1 3.27 16.0863 9.26179
2 0 15.5988 7.79941
2 2.18 16.5737 5.84955
2 2.18 17.5487 8.77433
2 0 18.5236 6.82448
1 1.09 17.0612 7.31194
1 3.27 18.0361 5.36209
1 3.27 19.011 8.28687
1 1.09 19.986 6.33702
2 0 17.5487 3.8997
2 2.18 18.5236 1.94985
2 2.18 19.4985 4.87463
1 1.09 19.011 3.41224
1 3.27 19.986 1.46239
2 0 19.4985 0
2 0 19.4985 9.74926
1 5.45 0.487463 6.33702
2 6.54 0 4.87463
2 4.36 0.974926 2.92478
1 7.63 0.487463 1.46239
1 7.63 1.46239 4.38717
1 5.45 2.43731 2.43731
2 4.36 0 0
2 6.54 1.94985 0.974926
1 7.63 3.41224 0.487463
2 4.36 0 9.74926
2 6.54 0.974926 7.79941
2 4.36 2.92478 8.77433
1 5.45 1.46239 9.26179
1 7.63 2.43731 7.31194
1 5.45 4.38717 8.28687
2 4.36 1.94985 5.84955
2 6.54 2.92478 3.8997
2 6.54 3.8997 6.82448
2 4.36 4.87463 4.87463
1 5.45 3.41224 5.36209
1 7.63 4.38717 3.41224
1 7.63 5.36209 6.33702
1 5.45 6.33702 4.38717
2 4.36 3.8997 1.94985
2 6.54 4.87463 0
2 6.54 5.84955 2.92478
2 4.36 6.82448 0.974926
1 5.45 5.36209 1.46239
1 7.63 7.31194 2.43731
1 5.45 8.28687 0.487463
2 6.54 4.87463 9.74926
1 7.63 6.33702 9.26179
2 4.36 5.84955 7.79941
2 6.54 6.82448 5.84955
2 6.54 7.79941 8.77433
2 4.36 8.77433 6.82448
1 5.45 7.31194 7.31194
1 7.63 8.28687 5.36209
1 7.63 9.26179 8.28687
1 5.45 10.2367 6.33702
2 4.36 7.79941 3.8997
2 6.54 8.77433 1.94985
2 6.54 9.74926 4.87463
2 4.36 10.7242 2.92478
1 5.45 9.26179 3.41224
1 7.63 10.2367 1.46239
1 7.63 11.2116 4.38717
1 5.45 12.1866 2.43731
2 4.36 9.74926 0
2 6.54 11.6991 0.974926
1 7.63 13.1615 0.487463
2 4.36 9.74926 9.74926
2 6.54 10.7242 7.79941
2 4.36 12.674 8.77433
1 5.45 11.2116 9.26179
1 7.63 12.1866 7.31194
1 5.45 14.1364 8.28687
2 4.36 11.6991 5.84955
2 6.54 12.674 3.8997
2 6.54 13.649 6.82448
2 4.36 14.6239 4.87463
1 5.45 13.1615 5.36209
1 7.63 14.1364 3.41224
1 7.63 15.1113 6.33702
1 5.45 16.0863 4.38717
2 4.36 13.649 1.94985
2 6.54 14.6239 0
2 6.54 15.5988 2.92478
2 4.36 16.5737 0.974926
1 5.45 15.1113 1.46239
1 7.63 17.0612 2.43731
1 5.45 18.0361 0.487463
2 6.54 14.6239 9.74926
1 7.63 16.0863 9.26179
2 4.36 15.5988 7.79941
2 6.54 16.5737 5.84955
2 6.54 17.5487 8.77433
2 4.36 18.5236 6.82448
1 5.45 17.0612 7.31194
1 7.63 18.0361 5.36209
1 7.63 19.011 8.28687
1 5.45 19.986 6.33702
2 4.36 17.5487 3.8997
2 6.54 18.5236 1.94985
2 6.54 19.4985 4.87463
1 5.45 19.011 3.41224
1 7.63 19.986 1.46239
2 4.36 19.4985 0
2 4.36 19.4985 9.74926
1 9.81 0.487463 6.33702
2 10.9 0 4.87463
2 8.72 0.974926 2.92478
1 11.99 0.487463 1.46239
1 11.99 1.46239 4.38717
1 9.81 2.43731 2.43731
2 8.72 0 0
2 10.9 1.94985 0.974926
1 11.99 3.41224 0.487463
2 8.72 0 9.74926
2 10.9 0.974926 7.79941
2 8.72 2.92478 8.77433
1 9.81 1.46239 9.26179
1 11.99 2.43731 7.31194
1 9.81 4.38717 8.28687
2 8.72 1.94985 5.84955
2 10.9 2.92478 3.8997
2 10.9 3.8997 6.82448
2 8.72 4.87463 4.87463
1 9.81 3.41224 5.36209
1 11.99 4.38717 3.41224
1 11.99 5.36209 6.33702
1 9.81 6.33702 4.38717
2 8.72 3.8997 1.94985
2 10.9 4.87463 0
2 10.9 5.84955 2.92478
2 8.72 6.82448 0.974926
1 9.81 5.36209 1.46239
1 11.99 7.31194 2.43731
1 9.81 8.28687 0.487463
2 10.9 4.87463 9.74926
1 11.99 6.33702 9.26179
2 8.72 5.84955 7.79941
2 10.9 6.82448 5.84955
2 10.9 7.79941 8.77433
2 8.72 8.77433 6.82448
1 9.81 7.31194 7.31194
1 11.99 8.28687 5.36209
1 11.99 9.26179 8.28687
1 9.81 10.2367 6.33702
2 8.72 7.79941 3.8997
2 10.9 8.77433 1.94985
2 10.9 9.74926 4.87463
2 8.72 10.7242 2.92478
1 9.81 9.26179 3.41224
1 11.99 10.2367 1.46239
1 11.99 11.2116 4.38717
1 9.81 12.1866 2.43731
2 8.72 9.74926 0
2 10.9 11.6991 0.974926
1 11.99 13.1615 0.487463
2 8.72 9.74926 9.74926
2 10.9 10.7242 7.79941
2 8.72 12.674 8.77433
1 9.81 11.2116 9.26179
1 11.99 12.1866 7.31194
1 9.81 14.1364 8.28687
2 8.72 11.6991 5.84955
2 10.9 12.674 3.8997
2 10.9 13.649 6.82448
2 8.72 14.6239 4.87463
1 9.81 13.1615 5.36209
1 11.99 14.1364 3.41224
1 11.99 15.1113 6.33702
1 9.81 16.0863 4.38717
2 8.72 13.649 1.94985
2 10.9 14.6239 0
2 10.9 15.5988 2.92478
2 8.72 16.5737 0.974926
1 9.81 15.1113 1.46239
1 11.99 17.0612 2.43731
1 9.81 18.0361 0.487463
2 10.9 14.6239 9.74926
1 11.99 16.0863 9.26179
2 8.72 15.5988 7.79941
2 10.9 16.5737 5.84955
2 10.9 17.5487 8.77433
2 8.72 18.5236 6.82448
1 9.81 17.0612 7.31194
1 11.99 18.0361 5.36209
1 11.99 19.011 8.28687
1 9.81 19.986 6.33702
2 8.72 17.5487 3.8997
2 10.9 18.5236 1.94985
2 10.9 19.4985 4.87463
1 9.81 19.011 3.41224
1 11.99 19.986 1.46239
2 8.72 19.4985 0
2 8.72 19.4985 9.74926
1 14.17 0.487463 6.33702
2 15.26 0 4.87463
2 13.08 0.974926 2.92478
1 16.35 0.487463 1.46239
1 16.35 1.46239 4.38717
1 14.17 2.43731 2.43731
2 13.08 0 0
2 15.26 1.94985 0.974926
1 16.35 3.41224 0.487463
2 13.08 0 9.74926
2 15.26 0.974926 7.79941
2 13.08 2.92478 8.77433
1 14.17 1.46239 9.26179
1 16.35 2.43731 7.31194
1 14.17 4.38717 8.28687
2 13.08 1.94985 5.84955
2 15.26 2.92478 3.8997
2 15.26 3.8997 6.82448
2 13.08 4.87463 4.87463
1 14.17 3.41224 5.36209
1 16.35 4.38717 3.41224
1 16.35 5.36209 6.33702
1 14.17 6.33702 4.38717
2 13.08 3.8997 1.94985
2 15.26 4.87463 0
2 15.26 5.84955 2.92478
2 13.08 6.82448 0.974926
1 14.17 5.36209 1.46239
1 16.35 7.31194 2.43731
1 14.17 8.28687 0.487463
2 15.26 4.87463 9.74926
1 16.35 6.33702 9.26179
2 13.08 5.84955 7.79941
2 15.26 6.82448 5.84955
2 15.26 7.79941 8.77433
2 13.08 8.77433 6.82448
1 14.17 7.31194 7.31194
1 16.35 8.28687 5.36209
1 16.35 9.26179 8.28687
1 14.17 10.2367 6.33702
2 13.08 7.79941 3.8997
2 15.26 8.77433 1.94985
2 15.26 9.74926 4.87463
2 13.08 10.7242 2.92478
1 14.17 9.26179 3.41224
1 16.35 10.2367 1.46239
1 16.35 11.2116 4.38717
1 14.17 12.1866 2.43731
2 13.08 9.74926 0
2 15.26 11.6991 0.974926
1 16.35 13.1615 0.487463
2 13.08 9.74926 9.74926
2 15.26 10.7242 7.79941
2 13.08 12.674 8.77433
1 14.17 11.2116 9.26179
1 16.35 12.1866 7.31194
1 14.17 14.1364 8.28687
2 13.08 11.6991 5.84955
2 15.26 12.674 3.8997
2 15.26 13.649 6.82448
2 13.08 14.6239 4.87463
1 14.17 13.1615 5.36209
1 16.35 14.1364 3.41224
1 16.35 15.1113 6.33702
1 14.17 16.0863 4.38717
2 13.08 13.649 1.94985
2 15.26 14.6239 0
2 15.26 15.5988 2.92478
2 13.08 16.5737 0.974926
1 14.17 15.1113 1.46239
1 16.35 17.0612 2.43731
1 14.17 18.0361 0.487463
2 15.26 14.6239 9.74926
1 16.35 16.0863 9.26179
2 13.08 15.5988 7.79941
2 15.26 16.5737 5.84955
2 15.26 17.5487 8.77433
2 13.08 18.5236 6.82448
1 14.17 17.0612 7.31194
1 16.35 18.0361 5.36209
1 16.35 19.011 8.28687
1 14.17 19.986 6.33702
2 13.08 17.5487 3.8997
2 15.26 18.5236 1.94985
2 15.26 19.4985 4.87463
1 14.17 19.011 3.41224
1 16.35 19.986 1.46239
2 13.08 19.4985 0
2 13.08 19.4985 9.74926
1 18.53 0.487463 6.33702
2 19.62 0 4.87463
2 17.44 0.974926 2.92478
1 18.53 2.43731 2.43731
2 17.44 0 0
2 19.62 1.94985 0.974926
2 17.44 0 9.74926
2 19.62 0.974926 7.79941
2 17.44 2.92478 8.77433
1 18.53 1.46239 9.26179
1 18.53 4.38717 8.28687
2 17.44 1.94985 5.84955
2 19.62 2.92478 3.8997
2 19.62 3.8997 6.82448
2 17.44 4.87463 4.87463
1 18.53 3.41224 5.36209
1 18.53 6.33702 4.38717
2 17.44 3.8997 1.94985
2 19.62 4.87463 0
2 19.62 5.84955 2.92478
2 17.44 6.82448 0.974926
1 18.53 5.36209 1.46239
1 18.53 8.28687 0.487463
2 19.62 4.87463 9.74926
2 17.44 5.84955 7.79941
2 19.62 6.82448 5.84955
2 19.62 7.79941 8.77433
2 17.44 8.77433 6.82448
1 18.53 7.31194 7.31194
1 18.53 10.2367 6.33702
2 17.44 7.79941 3.8997
2 19.62 8.77433 1.94985
2 19.62 9.74926 4.87463
2 17.44 10.7242 2.92478
1 18.53 9.26179 3.41224
1 18.53 12.1866 2.43731
2 17.44 9.74926 0
2 19.62 11.6991 0.974926
2 17.44 9.74926 9.74926
2 19.62 10.7242 7.79941
2 17.44 12.674 8.77433
1 18.53 11.2116 9.26179
1 18.53 14.1364 8.28687
2 17.44 11.6991 5.84955
2 19.62 12.674 3.8997
2 19.62 13.649 6.82448
2 17.44 14.6239 4.87463
1 18.53 13.1615 5.36209
1 18.53 16.0863 4.38717
2 17.44 13.649 1.94985
2 19.62 14.6239 0
2 19.62 15.5988 2.92478
2 17.44 16.5737 0.974926
1 18.53 15.1113 1.46239
1 18.53 18.0361 0.487463
2 19.62 14.6239 9.74926
2 17.44 15.5988 7.79941
2 19.62 16.5737 5.84955
2 19.62 17.5487 8.77433
2 17.44 18.5236 6.82448
1 18.53 17.0612 7.31194
1 18.53 19.986 6.33702
2 17.44 17.5487 3.8997
2 19.62 18.5236 1.94985
2 19.62 19.4985 4.87463
1 18.53 19.011 3.41224
2 17.44 19.4985 0
2 17.44 19.4985 9.74926
399
Atoms. Timestep: 1
1 1.09 0.487463 6.33702
2 2.18 0 4.87463
2 0 0.974926 2.92478
1 3.27 0.487463 1.46239
1 3.27 1.46239 4.38717
1 1.09 2.43731 2.43731
2 0 0 0
2 2.18 1.94985 0.974926
1 3.27 3.41224 0.487463
2 2.18 0.974926 7.79941
2 0 2.92478 8.77433
1 3.27 2.43731 7.31194
1 1.09 4.38717 8.28687
2 0 1.94985 5.84955
2 2.18 2.92478 3.8997
2 2.18 3.8997 6.82448
2 0 4.87463 4.87463
1 1.09 3.41224 5.36209
1 3.27 4.38717 3.41224
1 3.27 5.36209 6.33702
1 1.09 6.33702 4.38717
2 0 3.8997 1.94985
2 2.18 4.87463 0
2 2.18 5.84955 2.92478
2 0 6.82448 0.974926
1 1.09 5.36209 1.46239
1 3.27 7.31194 2.43731
1 1.09 8.28687 0.487463
2 2.18 4.87463 9.74926
1 3.27 6.33702 9.26179
2 2.18 6.82448 5.84955
2 2.18 7.79941 8.77433
2 0 8.77433 6.82448
1 3.27 8.28687 5.36209
1 3.27 9.26179 8.28687
1 1.09 10.2367 6.33702
2 2.18 8.77433 1.94985
2 2.18 9.74926 4.87463
2 0 10.7242 2.92478
1 1.09 9.26179 3.41224
1 3.27 10.2367 1.46239
1 3.27 11.2116 4.38717
1 1.09 12.1866 2.43731
2 0 9.74926 0
2 2.18 11.6991 0.974926
1 3.27 13.1615 0.487463
2 0 9.74926 9.74926
2 2.18 10.7242 7.79941
2 0 12.674 8.77433
1 1.09 11.2116 9.26179
1 3.27 12.1866 7.31194
1 1.09 14.1364 8.28687
2 0 11.6991 5.84955
2 2.18 12.674 3.8997
2 2.18 13.649 6.82448
2 0 14.6239 4.87463
1 3.27 14.1364 3.41224
1 3.27 15.1113 6.33702
1 1.09 16.0863 4.38717
2 0 13.649 1.94985
2 2.18 14.6239 0
2 2.18 15.5988 2.92478
2 0 16.5737 0.974926
1 1.09 15.1113 1.46239
1 3.27 17.0612 2.43731
1 1.09 18.0361 0.487463
2 2.18 14.6239 9.74926
1 3.27 16.0863 9.26179
2 2.18 16.5737 5.84955
2 2.18 17.5487 8.77433
2 0 18.5236 6.82448
1 3.27 18.0361 5.36209
1 3.27 19.011 8.28687
1 1.09 19.986 6.33702
2 0 17.5487 3.8997
2 2.18 18.5236 1.94985
2 2.18 19.4985 4.87463
1 1.09 19.011 3.41224
1 3.27 19.986 1.46239
2 0 19.4985 0
2 0 19.4985 9.74926
2 6.54 0 4.87463
2 4.36 0.974926 2.92478
1 7.63 0.487463 1.46239
1 7.63 1.46239 4.38717
1 5.45 2.43731 2.43731
2 4.36 0 0
2 6.54 1.94985 0.974926
1 7.63 3.41224 0.487463
2 4.36 0 9.74926
2 6.54 0.974926 7.79941
2 4.36 2.92478 8.77433
1 5.45 1.46239 9.26179
1 7.63 2.43731 7.31194
1 5.45 4.38717 8.28687
2 4.36 1.94985 5.84955
2 6.54 2.92478 3.8997
2 6.54 3.8997 6.82448
2 4.36 4.87463 4.87463
1 5.45 3.41224 5.36209
1 7.63 4.38717 3.41224
1 7.63 5.36209 6.33702
1 5.45 6.33702 4.38717
2 4.36 3.8997 1.94985
2 6.54 4.87463 0
2 6.54 5.84955 2.92478
2 4.36 6.82448 0.974926
1 5.45 5.36209 1.46239
1 7.63 7.31194 2.43731
1 5.45 8.28687 0.487463
2 6.54 4.87463 9.74926
1 7.63 6.33702 9.26179
2 4.36 5.84955 7.79941
2 6.54 6.82448 5.84955
2 6.54 7.79941 8.77433
2 4.36 8.77433 6.82448
1 5.45 7.31194 7.31194
1 7.63 8.28687 5.36209
1 7.63 9.26179 8.28687
1 5.45 10.2367 6.33702
2 4.36 7.79941 3.8997
2 6.54 8.77433 1.94985
2 6.54 9.74926 4.87463
2 4.36 10.7242 2.92478
1 5.45 9.26179 3.41224
1 7.63 10.2367 1.46239
1 7.63 11.2116 4.38717
1 5.45 12.1866 2.43731
2 4.36 9.74926 0
2 6.54 11.6991 0.974926
1 7.63 13.1615 0.487463
2 4.36 9.74926 9.74926
2 6.54 10.7242 7.79941
2 4.36 12.674 8.77433
1 5.45 11.2116 9.26179
1 7.63 12.1866 7.31194
1 5.45 14.1364 8.28687
2 4.36 11.6991 5.84955
2 6.54 12.674 3.8997
2 6.54 13.649 6.82448
2 4.36 14.6239 4.87463
1 5.45 13.1615 5.36209
1 7.63 14.1364 3.41224
1 7.63 15.1113 6.33702
1 5.45 16.0863 4.38717
2 4.36 13.649 1.94985
2 6.54 14.6239 0
2 6.54 15.5988 2.92478
2 4.36 16.5737 0.974926
1 5.45 15.1113 1.46239
1 7.63 17.0612 2.43731
1 5.45 18.0361 0.487463
2 6.54 14.6239 9.74926
1 7.63 16.0863 9.26179
2 4.36 15.5988 7.79941
2 6.54 16.5737 5.84955
2 6.54 17.5487 8.77433
2 4.36 18.5236 6.82448
1 5.45 17.0612 7.31194
1 7.63 18.0361 5.36209
1 7.63 19.011 8.28687
1 5.45 19.986 6.33702
2 4.36 17.5487 3.8997
2 6.54 18.5236 1.94985
2 6.54 19.4985 4.87463
1 5.45 19.011 3.41224
1 7.63 19.986 1.46239
2 4.36 19.4985 0
2 4.36 19.4985 9.74926
2 10.9 0 4.87463
2 8.72 0.974926 2.92478
1 11.99 0.487463 1.46239
1 11.99 1.46239 4.38717
1 9.81 2.43731 2.43731
2 8.72 0 0
2 10.9 1.94985 0.974926
1 11.99 3.41224 0.487463
2 8.72 0 9.74926
2 10.9 0.974926 7.79941
2 8.72 2.92478 8.77433
1 9.81 1.46239 9.26179
1 11.99 2.43731 7.31194
1 9.81 4.38717 8.28687
2 8.72 1.94985 5.84955
2 10.9 2.92478 3.8997
2 10.9 3.8997 6.82448
2 8.72 4.87463 4.87463
1 9.81 3.41224 5.36209
1 11.99 4.38717 3.41224
1 11.99 5.36209 6.33702
1 9.81 6.33702 4.38717
2 8.72 3.8997 1.94985
2 10.9 4.87463 0
2 10.9 5.84955 2.92478
2 8.72 6.82448 0.974926
1 9.81 5.36209 1.46239
1 11.99 7.31194 2.43731
1 9.81 8.28687 0.487463
2 10.9 4.87463 9.74926
1 11.99 6.33702 9.26179
2 8.72 5.84955 7.79941
2 10.9 6.82448 5.84955
2 10.9 7.79941 8.77433
2 8.72 8.77433 6.82448
1 9.81 7.31194 7.31194
1 11.99 8.28687 5.36209
1 11.99 9.26179 8.28687
1 9.81 10.2367 6.33702
2 8.72 7.79941 3.8997
2 10.9 8.77433 1.94985
2 10.9 9.74926 4.87463
2 8.72 10.7242 2.92478
1 9.81 9.26179 3.41224
1 11.99 10.2367 1.46239
1 11.99 11.2116 4.38717
1 9.81 12.1866 2.43731
2 8.72 9.74926 0
2 10.9 11.6991 0.974926
1 11.99 13.1615 0.487463
2 8.72 9.74926 9.74926
2 10.9 10.7242 7.79941
2 8.72 12.674 8.77433
1 9.81 11.2116 9.26179
1 11.99 12.1866 7.31194
1 9.81 14.1364 8.28687
2 8.72 11.6991 5.84955
2 10.9 12.674 3.8997
2 10.9 13.649 6.82448
2 8.72 14.6239 4.87463
1 9.81 13.1615 5.36209
1 11.99 14.1364 3.41224
1 11.99 15.1113 6.33702
1 9.81 16.0863 4.38717
2 8.72 13.649 1.94985
2 10.9 14.6239 0
2 10.9 15.5988 2.92478
2 8.72 16.5737 0.974926
1 9.81 15.1113 1.46239
1 11.99 17.0612 2.43731
1 9.81 18.0361 0.487463
2 10.9 14.6239 9.74926
1 11.99 16.0863 9.26179
2 8.72 15.5988 7.79941
2 10.9 16.5737 5.84955
2 10.9 17.5487 8.77433
2 8.72 18.5236 6.82448
1 9.81 17.0612 7.31194
1 11.99 18.0361 5.36209
1 9.81 19.986 6.33702
2 8.72 17.5487 3.8997
2 10.9 18.5236 1.94985
1 9.81 19.011 3.41224
1 11.99 19.986 1.46239
2 8.72 19.4985 0
1 14.17 0.487463 6.33702
2 15.26 0 4.87463
2 13.08 0.974926 2.92478
1 16.35 0.487463 1.46239
1 14.17 2.43731 2.43731
2 13.08 0 0
2 15.26 1.94985 0.974926
1 16.35 3.41224 0.487463
2 13.08 0 9.74926
2 15.26 0.974926 7.79941
2 13.08 2.92478 8.77433
1 14.17 1.46239 9.26179
1 16.35 2.43731 7.31194
1 14.17 4.38717 8.28687
2 13.08 1.94985 5.84955
2 15.26 2.92478 3.8997
2 15.26 3.8997 6.82448
2 13.08 4.87463 4.87463
1 14.17 3.41224 5.36209
1 16.35 4.38717 3.41224
1 16.35 5.36209 6.33702
1 14.17 6.33702 4.38717
2 13.08 3.8997 1.94985
2 15.26 4.87463 0
2 15.26 5.84955 2.92478
2 13.08 6.82448 0.974926
1 14.17 5.36209 1.46239
1 16.35 7.31194 2.43731
1 14.17 8.28687 0.487463
2 15.26 4.87463 9.74926
1 16.35 6.33702 9.26179
2 13.08 5.84955 7.79941
2 15.26 6.82448 5.84955
2 15.26 7.79941 8.77433
2 13.08 8.77433 6.82448
1 14.17 7.31194 7.31194
1 16.35 8.28687 5.36209
1 16.35 9.26179 8.28687
1 14.17 10.2367 6.33702
2 13.08 7.79941 3.8997
2 15.26 8.77433 1.94985
2 15.26 9.74926 4.87463
2 13.08 10.7242 2.92478
1 14.17 9.26179 3.41224
1 16.35 10.2367 1.46239
1 16.35 11.2116 4.38717
1 14.17 12.1866 2.43731
2 13.08 9.74926 0
2 15.26 11.6991 0.974926
1 16.35 13.1615 0.487463
2 13.08 9.74926 9.74926
2 15.26 10.7242 7.79941
2 13.08 12.674 8.77433
1 14.17 11.2116 9.26179
1 16.35 12.1866 7.31194
1 14.17 14.1364 8.28687
2 13.08 11.6991 5.84955
2 15.26 12.674 3.8997
2 15.26 13.649 6.82448
2 13.08 14.6239 4.87463
1 14.17 13.1615 5.36209
1 16.35 14.1364 3.41224
1 16.35 15.1113 6.33702
1 14.17 16.0863 4.38717
2 13.08 13.649 1.94985
2 15.26 14.6239 0
2 15.26 15.5988 2.92478
2 13.08 16.5737 0.974926
1 14.17 15.1113 1.46239
1 16.35 17.0612 2.43731
1 14.17 18.0361 0.487463
2 15.26 14.6239 9.74926
1 16.35 16.0863 9.26179
2 13.08 15.5988 7.79941
2 15.26 16.5737 5.84955
2 15.26 17.5487 8.77433
2 13.08 18.5236 6.82448
1 14.17 17.0612 7.31194
1 16.35 19.011 8.28687
1 14.17 19.986 6.33702
2 13.08 17.5487 3.8997
2 15.26 18.5236 1.94985
2 15.26 19.4985 4.87463
1 14.17 19.011 3.41224
1 16.35 19.986 1.46239
2 13.08 19.4985 0
2 13.08 19.4985 9.74926
2 19.62 0 4.87463
2 17.44 0.974926 2.92478
1 18.53 2.43731 2.43731
2 17.44 0 0
2 19.62 1.94985 0.974926
2 17.44 0 9.74926
2 17.44 1.94985 5.84955
2 19.62 3.8997 6.82448
2 17.44 4.87463 4.87463
1 18.53 3.41224 5.36209
1 18.53 6.33702 4.38717
2 17.44 3.8997 1.94985
2 19.62 4.87463 0
2 19.62 5.84955 2.92478
2 17.44 6.82448 0.974926
1 18.53 5.36209 1.46239
1 18.53 8.28687 0.487463
2 19.62 4.87463 9.74926
2 17.44 5.84955 7.79941
2 19.62 6.82448 5.84955
2 19.62 7.79941 8.77433
2 17.44 8.77433 6.82448
1 18.53 10.2367 6.33702
2 17.44 7.79941 3.8997
2 19.62 8.77433 1.94985
2 19.62 9.74926 4.87463
2 17.44 10.7242 2.92478
1 18.53 9.26179 3.41224
1 18.53 12.1866 2.43731
2 17.44 9.74926 0
2 19.62 11.6991 0.974926
2 17.44 9.74926 9.74926
2 19.62 10.7242 7.79941
2 17.44 12.674 8.77433
1 18.53 11.2116 9.26179
1 18.53 14.1364 8.28687
2 17.44 11.6991 5.84955
2 19.62 12.674 3.8997
2 19.62 13.649 6.82448
2 17.44 14.6239 4.87463
1 18.53 16.0863 4.38717
2 17.44 13.649 1.94985
2 19.62 14.6239 0
2 17.44 16.5737 0.974926
1 18.53 15.1113 1.46239
1 18.53 18.0361 0.487463
2 17.44 15.5988 7.79941
2 19.62 16.5737 5.84955
2 19.62 17.5487 8.77433
2 17.44 18.5236 6.82448
1 18.53 17.0612 7.31194
1 18.53 19.986 6.33702
2 17.44 17.5487 3.8997
2 19.62 18.5236 1.94985
2 19.62 19.4985 4.87463
1 18.53 19.011 3.41224
2 17.44 19.4985 0
2 17.44 19.4985 9.74926
389
Atoms. Timestep: 2
1 1.09 0.487463 6.33702
2 2.18 0 4.87463
2 0 0.974926 2.92478
1 3.27 0.487463 1.46239
1 3.27 1.46239 4.38717
1 1.09 2.43731 2.43731
2 0 0 0
2 2.18 1.94985 0.974926
1 3.27 3.41224 0.487463
2 2.18 0.974926 7.79941
2 0 2.92478 8.77433
1 3.27 2.43731 7.31194
2 0 1.94985 5.84955
2 2.18 2.92478 3.8997
2 2.18 3.8997 6.82448
2 0 4.87463 4.87463
1 1.09 3.41224 5.36209
1 3.27 4.38717 3.41224
1 3.27 5.36209 6.33702
1 1.09 6.33702 4.38717
2 0 3.8997 1.94985
2 2.18 4.87463 0
2 2.18 5.84955 2.92478
2 0 6.82448 0.974926
1 1.09 5.36209 1.46239
1 3.27 7.31194 2.43731
1 1.09 8.28687 0.487463
2 2.18 4.87463 9.74926
1 3.27 6.33702 9.26179
2 2.18 6.82448 5.84955
2 2.18 7.79941 8.77433
2 0 8.77433 6.82448
1 3.27 8.28687 5.36209
1 3.27 9.26179 8.28687
1 1.09 10.2367 6.33702
2 2.18 8.77433 1.94985
2 2.18 9.74926 4.87463
1 1.09 9.26179 3.41224
1 3.27 10.2367 1.46239
1 3.27 11.2116 4.38717
1 1.09 12.1866 2.43731
2 0 9.74926 0
2 2.18 11.6991 0.974926
1 3.27 13.1615 0.487463
2 2.18 10.7242 7.79941
2 0 12.674 8.77433
1 1.09 11.2116 9.26179
1 3.27 12.1866 7.31194
1 1.09 14.1364 8.28687
2 0 11.6991 5.84955
2 2.18 12.674 3.8997
2 2.18 13.649 6.82448
2 0 14.6239 4.87463
1 3.27 14.1364 3.41224
1 3.27 15.1113 6.33702
1 1.09 16.0863 4.38717
2 0 13.649 1.94985
2 2.18 14.6239 0
2 2.18 15.5988 2.92478
2 0 16.5737 0.974926
1 1.09 15.1113 1.46239
1 3.27 17.0612 2.43731
1 1.09 18.0361 0.487463
2 2.18 14.6239 9.74926
1 3.27 16.0863 9.26179
2 2.18 16.5737 5.84955
2 2.18 17.5487 8.77433
1 3.27 18.0361 5.36209
2 0 17.5487 3.8997
2 2.18 18.5236 1.94985
2 2.18 19.4985 4.87463
1 1.09 19.011 3.41224
1 3.27 19.986 1.46239
2 0 19.4985 0
2 0 19.4985 9.74926
2 6.54 0 4.87463
1 7.63 0.487463 1.46239
1 7.63 1.46239 4.38717
1 5.45 2.43731 2.43731
2 4.36 0 0
2 6.54 1.94985 0.974926
1 7.63 3.41224 0.487463
2 4.36 0 9.74926
2 6.54 0.974926 7.79941
2 4.36 2.92478 8.77433
1 5.45 1.46239 9.26179
1 7.63 2.43731 7.31194
1 5.45 4.38717 8.28687
2 4.36 1.94985 5.84955
2 6.54 2.92478 3.8997
2 6.54 3.8997 6.82448
2 4.36 4.87463 4.87463
1 5.45 3.41224 5.36209
1 7.63 4.38717 3.41224
1 7.63 5.36209 6.33702
1 5.45 6.33702 4.38717
2 4.36 3.8997 1.94985
2 6.54 4.87463 0
2 6.54 5.84955 2.92478
2 4.36 6.82448 0.974926
1 5.45 5.36209 1.46239
1 7.63 7.31194 2.43731
1 5.45 8.28687 0.487463
2 6.54 4.87463 9.74926
1 7.63 6.33702 9.26179
2 4.36 5.84955 7.79941
2 6.54 6.82448 5.84955
2 6.54 7.79941 8.77433
2 4.36 8.77433 6.82448
1 5.45 7.31194 7.31194
1 7.63 8.28687 5.36209
1 7.63 9.26179 8.28687
1 5.45 10.2367 6.33702
2 4.36 7.79941 3.8997
2 6.54 8.77433 1.94985
2 6.54 9.74926 4.87463
2 4.36 10.7242 2.92478
1 5.45 9.26179 3.41224
1 7.63 10.2367 1.46239
1 7.63 11.2116 4.38717
1 5.45 12.1866 2.43731
2 4.36 9.74926 0
2 6.54 11.6991 0.974926
1 7.63 13.1615 0.487463
2 4.36 9.74926 9.74926
2 6.54 10.7242 7.79941
2 4.36 12.674 8.77433
1 5.45 11.2116 9.26179
1 7.63 12.1866 7.31194
1 5.45 14.1364 8.28687
2 4.36 11.6991 5.84955
2 6.54 12.674 3.8997
2 6.54 13.649 6.82448
2 4.36 14.6239 4.87463
1 5.45 13.1615 5.36209
1 7.63 14.1364 3.41224
1 7.63 15.1113 6.33702
1 5.45 16.0863 4.38717
2 4.36 13.649 1.94985
2 6.54 14.6239 0
2 6.54 15.5988 2.92478
2 4.36 16.5737 0.974926
1 5.45 15.1113 1.46239
1 7.63 17.0612 2.43731
1 5.45 18.0361 0.487463
2 6.54 14.6239 9.74926
1 7.63 16.0863 9.26179
2 4.36 15.5988 7.79941
2 6.54 16.5737 5.84955
2 6.54 17.5487 8.77433
2 4.36 18.5236 6.82448
1 5.45 17.0612 7.31194
1 7.63 18.0361 5.36209
1 7.63 19.011 8.28687
1 5.45 19.986 6.33702
2 4.36 17.5487 3.8997
2 6.54 18.5236 1.94985
2 6.54 19.4985 4.87463
1 7.63 19.986 1.46239
2 4.36 19.4985 0
2 4.36 19.4985 9.74926
2 10.9 0 4.87463
2 8.72 0.974926 2.92478
1 11.99 0.487463 1.46239
1 11.99 1.46239 4.38717
1 9.81 2.43731 2.43731
2 8.72 0 0
2 10.9 1.94985 0.974926
1 11.99 3.41224 0.487463
2 8.72 0 9.74926
2 10.9 0.974926 7.79941
2 8.72 2.92478 8.77433
1 9.81 1.46239 9.26179
1 11.99 2.43731 7.31194
1 9.81 4.38717 8.28687
2 8.72 1.94985 5.84955
2 10.9 2.92478 3.8997
2 10.9 3.8997 6.82448
2 8.72 4.87463 4.87463
1 9.81 3.41224 5.36209
1 11.99 4.38717 3.41224
1 11.99 5.36209 6.33702
1 9.81 6.33702 4.38717
2 8.72 3.8997 1.94985
2 10.9 4.87463 0
2 10.9 5.84955 2.92478
2 8.72 6.82448 0.974926
1 9.81 5.36209 1.46239
1 11.99 7.31194 2.43731
1 9.81 8.28687 0.487463
2 10.9 4.87463 9.74926
1 11.99 6.33702 9.26179
2 8.72 5.84955 7.79941
2 10.9 6.82448 5.84955
2 10.9 7.79941 8.77433
2 8.72 8.77433 6.82448
1 9.81 7.31194 7.31194
1 11.99 8.28687 5.36209
1 11.99 9.26179 8.28687
1 9.81 10.2367 6.33702
2 8.72 7.79941 3.8997
2 10.9 8.77433 1.94985
2 10.9 9.74926 4.87463
2 8.72 10.7242 2.92478
1 9.81 9.26179 3.41224
1 11.99 10.2367 1.46239
1 11.99 11.2116 4.38717
1 9.81 12.1866 2.43731
2 8.72 9.74926 0
2 10.9 11.6991 0.974926
1 11.99 13.1615 0.487463
2 8.72 9.74926 9.74926
2 10.9 10.7242 7.79941
2 8.72 12.674 8.77433
1 9.81 11.2116 9.26179
1 11.99 12.1866 7.31194
1 9.81 14.1364 8.28687
2 8.72 11.6991 5.84955
2 10.9 12.674 3.8997
2 10.9 13.649 6.82448
2 8.72 14.6239 4.87463
1 9.81 13.1615 5.36209
1 11.99 14.1364 3.41224
1 11.99 15.1113 6.33702
1 9.81 16.0863 4.38717
2 8.72 13.649 1.94985
2 10.9 14.6239 0
2 10.9 15.5988 2.92478
2 8.72 16.5737 0.974926
1 9.81 15.1113 1.46239
1 11.99 17.0612 2.43731
1 9.81 18.0361 0.487463
2 10.9 14.6239 9.74926
1 11.99 16.0863 9.26179
2 8.72 15.5988 7.79941
2 10.9 16.5737 5.84955
2 10.9 17.5487 8.77433
2 8.72 18.5236 6.82448
1 9.81 17.0612 7.31194
1 11.99 18.0361 5.36209
1 9.81 19.986 6.33702
2 8.72 17.5487 3.8997
2 10.9 18.5236 1.94985
1 9.81 19.011 3.41224
1 11.99 19.986 1.46239
2 8.72 19.4985 0
1 14.17 0.487463 6.33702
2 15.26 0 4.87463
2 13.08 0.974926 2.92478
1 16.35 0.487463 1.46239
1 14.17 2.43731 2.43731
2 13.08 0 0
2 15.26 1.94985 0.974926
1 16.35 3.41224 0.487463
2 13.08 0 9.74926
2 15.26 0.974926 7.79941
2 13.08 2.92478 8.77433
1 14.17 1.46239 9.26179
1 16.35 2.43731 7.31194
1 14.17 4.38717 8.28687
2 13.08 1.94985 5.84955
2 15.26 2.92478 3.8997
2 15.26 3.8997 6.82448
2 13.08 4.87463 4.87463
1 14.17 3.41224 5.36209
1 16.35 4.38717 3.41224
1 16.35 5.36209 6.33702
1 14.17 6.33702 4.38717
2 13.08 3.8997 1.94985
2 15.26 4.87463 0
2 15.26 5.84955 2.92478
2 13.08 6.82448 0.974926
1 14.17 5.36209 1.46239
1 16.35 7.31194 2.43731
1 14.17 8.28687 0.487463
2 15.26 4.87463 9.74926
1 16.35 6.33702 9.26179
2 13.08 5.84955 7.79941
2 15.26 6.82448 5.84955
2 15.26 7.79941 8.77433
2 13.08 8.77433 6.82448
1 14.17 7.31194 7.31194
1 16.35 8.28687 5.36209
1 16.35 9.26179 8.28687
1 14.17 10.2367 6.33702
2 13.08 7.79941 3.8997
2 15.26 8.77433 1.94985
2 15.26 9.74926 4.87463
2 13.08 10.7242 2.92478
1 14.17 9.26179 3.41224
1 16.35 10.2367 1.46239
1 16.35 11.2116 4.38717
1 14.17 12.1866 2.43731
2 13.08 9.74926 0
2 15.26 11.6991 0.974926
1 16.35 13.1615 0.487463
2 13.08 9.74926 9.74926
2 15.26 10.7242 7.79941
2 13.08 12.674 8.77433
1 14.17 11.2116 9.26179
1 16.35 12.1866 7.31194
1 14.17 14.1364 8.28687
2 13.08 11.6991 5.84955
2 15.26 12.674 3.8997
2 15.26 13.649 6.82448
2 13.08 14.6239 4.87463
1 14.17 13.1615 5.36209
1 16.35 14.1364 3.41224
1 16.35 15.1113 6.33702
1 14.17 16.0863 4.38717
2 13.08 13.649 1.94985
2 15.26 14.6239 0
2 15.26 15.5988 2.92478
2 13.08 16.5737 0.974926
1 14.17 15.1113 1.46239
1 16.35 17.0612 2.43731
1 14.17 18.0361 0.487463
2 15.26 14.6239 9.74926
1 16.35 16.0863 9.26179
2 13.08 15.5988 7.79941
2 15.26 16.5737 5.84955
2 15.26 17.5487 8.77433
2 13.08 18.5236 6.82448
1 14.17 17.0612 7.31194
1 16.35 19.011 8.28687
1 14.17 19.986 6.33702
2 13.08 17.5487 3.8997
2 15.26 18.5236 1.94985
2 15.26 19.4985 4.87463
1 14.17 19.011 3.41224
1 16.35 19.986 1.46239
2 13.08 19.4985 0
2 13.08 19.4985 9.74926
2 19.62 0 4.87463
2 17.44 0.974926 2.92478
1 18.53 2.43731 2.43731
2 17.44 0 0
2 19.62 1.94985 0.974926
2 17.44 0 9.74926
2 17.44 1.94985 5.84955
2 19.62 3.8997 6.82448
2 17.44 4.87463 4.87463
1 18.53 3.41224 5.36209
1 18.53 6.33702 4.38717
2 17.44 3.8997 1.94985
2 19.62 4.87463 0
2 19.62 5.84955 2.92478
2 17.44 6.82448 0.974926
1 18.53 5.36209 1.46239
1 18.53 8.28687 0.487463
2 19.62 4.87463 9.74926
2 17.44 5.84955 7.79941
2 19.62 6.82448 5.84955
2 19.62 7.79941 8.77433
2 17.44 8.77433 6.82448
2 17.44 7.79941 3.8997
2 19.62 8.77433 1.94985
2 19.62 9.74926 4.87463
2 17.44 10.7242 2.92478
1 18.53 9.26179 3.41224
1 18.53 12.1866 2.43731
2 17.44 9.74926 0
2 19.62 11.6991 0.974926
2 17.44 9.74926 9.74926
2 19.62 10.7242 7.79941
2 17.44 12.674 8.77433
1 18.53 11.2116 9.26179
1 18.53 14.1364 8.28687
2 17.44 11.6991 5.84955
2 19.62 12.674 3.8997
2 19.62 13.649 6.82448
2 17.44 14.6239 4.87463
1 18.53 16.0863 4.38717
2 17.44 13.649 1.94985
2 19.62 14.6239 0
2 17.44 16.5737 0.974926
1 18.53 15.1113 1.46239
1 18.53 18.0361 0.487463
2 17.44 15.5988 7.79941
2 19.62 16.5737 5.84955
2 19.62 17.5487 8.77433
2 17.44 18.5236 6.82448
1 18.53 17.0612 7.31194
1 18.53 19.986 6.33702
2 17.44 17.5487 3.8997
2 19.62 18.5236 1.94985
2 19.62 19.4985 4.87463
2 17.44 19.4985 0
2 17.44 19.4985 9.74926
378
Atoms. Timestep: 3
1 1.09 0.487463 6.33702
2 2.18 0 4.87463
2 0 0.974926 2.92478
1 3.27 0.487463 1.46239
1 3.27 1.46239 4.38717
1 1.09 2.43731 2.43731
2 0 0 0
2 2.18 1.94985 0.974926
1 3.27 3.41224 0.487463
2 2.18 0.974926 7.79941
2 0 2.92478 8.77433
1 3.27 2.43731 7.31194
2 2.18 2.92478 3.8997
2 2.18 3.8997 6.82448
2 0 4.87463 4.87463
1 1.09 3.41224 5.36209
1 3.27 4.38717 3.41224
1 3.27 5.36209 6.33702
1 1.09 6.33702 4.38717
2 0 3.8997 1.94985
2 2.18 4.87463 0
2 2.18 5.84955 2.92478
2 0 6.82448 0.974926
1 1.09 5.36209 1.46239
1 3.27 7.31194 2.43731
1 1.09 8.28687 0.487463
2 2.18 4.87463 9.74926
1 3.27 6.33702 9.26179
2 2.18 6.82448 5.84955
2 2.18 7.79941 8.77433
2 0 8.77433 6.82448
1 3.27 8.28687 5.36209
1 3.27 9.26179 8.28687
1 1.09 10.2367 6.33702
2 2.18 8.77433 1.94985
2 2.18 9.74926 4.87463
1 1.09 9.26179 3.41224
1 3.27 10.2367 1.46239
1 3.27 11.2116 4.38717
1 1.09 12.1866 2.43731
2 0 9.74926 0
2 2.18 11.6991 0.974926
1 3.27 13.1615 0.487463
2 2.18 10.7242 7.79941
2 0 12.674 8.77433
1 1.09 11.2116 9.26179
1 3.27 12.1866 7.31194
1 1.09 14.1364 8.28687
2 0 11.6991 5.84955
2 2.18 12.674 3.8997
2 2.18 13.649 6.82448
2 0 14.6239 4.87463
1 3.27 14.1364 3.41224
1 3.27 15.1113 6.33702
1 1.09 16.0863 4.38717
2 0 13.649 1.94985
2 2.18 14.6239 0
2 2.18 15.5988 2.92478
2 0 16.5737 0.974926
1 1.09 15.1113 1.46239
1 3.27 17.0612 2.43731
1 1.09 18.0361 0.487463
2 2.18 14.6239 9.74926
1 3.27 16.0863 9.26179
2 2.18 16.5737 5.84955
2 2.18 17.5487 8.77433
1 3.27 18.0361 5.36209
2 0 17.5487 3.8997
2 2.18 18.5236 1.94985
2 2.18 19.4985 4.87463
1 3.27 19.986 1.46239
2 0 19.4985 0
2 0 19.4985 9.74926
2 6.54 0 4.87463
1 7.63 0.487463 1.46239
1 5.45 2.43731 2.43731
2 4.36 0 0
2 6.54 1.94985 0.974926
1 7.63 3.41224 0.487463
2 4.36 0 9.74926
2 6.54 0.974926 7.79941
2 4.36 2.92478 8.77433
1 5.45 1.46239 9.26179
1 7.63 2.43731 7.31194
1 5.45 4.38717 8.28687
2 4.36 1.94985 5.84955
2 6.54 2.92478 3.8997
2 6.54 3.8997 6.82448
2 4.36 4.87463 4.87463
1 5.45 3.41224 5.36209
1 7.63 4.38717 3.41224
1 7.63 5.36209 6.33702
1 5.45 6.33702 4.38717
2 4.36 3.8997 1.94985
2 6.54 4.87463 0
2 6.54 5.84955 2.92478
2 4.36 6.82448 0.974926
1 5.45 5.36209 1.46239
1 7.63 7.31194 2.43731
1 5.45 8.28687 0.487463
2 6.54 4.87463 9.74926
1 7.63 6.33702 9.26179
2 4.36 5.84955 7.79941
2 6.54 6.82448 5.84955
2 6.54 7.79941 8.77433
2 4.36 8.77433 6.82448
1 5.45 7.31194 7.31194
1 7.63 8.28687 5.36209
1 7.63 9.26179 8.28687
1 5.45 10.2367 6.33702
2 4.36 7.79941 3.8997