ITEM: TIMESTEP
10000
ITEM: NUMBER OF ATOMS
416
ITEM: BOX BOUNDS pp pp ff
0.0000000000000000e+00 1.7438400000000001e+01
0.0000000000000000e+00 1.7438400000000001e+01
-1.3078800000000001e+01 1.3078800000000001e+01
ITEM: ATOMS id type xs ys zs
289 4 0 0 0
290 4 0.125 0 0.0833333
291 4 0 0.125 0.0833333
292 4 0.125 0.125 0
293 3 0.0625 0.0625 0.0416667
294 3 0.1875 0.0625 0.125
295 3 0.0625 0.1875 0.125
296 3 0.1875 0.1875 0.0416667
297 4 0.25 0 0
298 4 0.375 0 0.0833333
299 4 0.25 0.125 0.0833333
300 4 0.375 0.125 0
301 3 0.3125 0.0625 0.0416667
302 3 0.4375 0.0625 0.125
303 3 0.3125 0.1875 0.125
304 3 0.4375 0.1875 0.0416667
305 4 0.5 0 0
306 4 0.625 0 0.0833333
307 4 0.5 0.125 0.0833333
308 4 0.625 0.125 0
309 3 0.5625 0.0625 0.0416667
310 3 0.6875 0.0625 0.125
311 3 0.5625 0.1875 0.125
312 3 0.6875 0.1875 0.0416667
313 4 0.75 0 0
314 4 0.875 0 0.0833333
315 4 0.75 0.125 0.0833333
316 4 0.875 0.125 0
317 3 0.8125 0.0625 0.0416667
318 3 0.9375 0.0625 0.125
319 3 0.8125 0.1875 0.125
320 3 0.9375 0.1875 0.0416667
321 4 0 0.25 0
322 4 0.125 0.25 0.0833333
323 4 0 0.375 0.0833333
324 4 0.125 0.375 0
325 3 0.0625 0.3125 0.0416667
326 3 0.1875 0.3125 0.125
327 3 0.0625 0.4375 0.125
328 3 0.1875 0.4375 0.0416667
329 4 0.25 0.25 0
330 4 0.375 0.25 0.0833333
331 4 0.25 0.375 0.0833333
332 4 0.375 0.375 0
333 3 0.3125 0.3125 0.0416667
334 3 0.4375 0.3125 0.125
335 3 0.3125 0.4375 0.125
336 3 0.4375 0.4375 0.0416667
337 4 0.5 0.25 0
338 4 0.625 0.25 0.0833333
339 4 0.5 0.375 0.0833333
340 4 0.625 0.375 0
341 3 0.5625 0.3125 0.0416667
342 3 0.6875 0.3125 0.125
343 3 0.5625 0.4375 0.125
344 3 0.6875 0.4375 0.0416667
345 4 0.75 0.25 0
346 4 0.875 0.25 0.0833333
347 4 0.75 0.375 0.0833333
348 4 0.875 0.375 0
349 3 0.8125 0.3125 0.0416667
350 3 0.9375 0.3125 0.125
351 3 0.8125 0.4375 0.125
352 3 0.9375 0.4375 0.0416667
353 4 0 0.5 0
354 4 0.125 0.5 0.0833333
355 4 0 0.625 0.0833333
356 4 0.125 0.625 0
357 3 0.0625 0.5625 0.0416667
358 3 0.1875 0.5625 0.125
359 3 0.0625 0.6875 0.125
360 3 0.1875 0.6875 0.0416667
361 4 0.25 0.5 0
362 4 0.375 0.5 0.0833333
363 4 0.25 0.625 0.0833333
364 4 0.375 0.625 0
365 3 0.3125 0.5625 0.0416667
366 3 0.4375 0.5625 0.125
367 3 0.3125 0.6875 0.125
368 3 0.4375 0.6875 0.0416667
369 4 0.5 0.5 0
370 4 0.625 0.5 0.0833333
371 4 0.5 0.625 0.0833333
372 4 0.625 0.625 0
373 3 0.5625 0.5625 0.0416667
374 3 0.6875 0.5625 0.125
375 3 0.5625 0.6875 0.125
376 3 0.6875 0.6875 0.0416667
377 4 0.75 0.5 0
378 4 0.875 0.5 0.0833333
379 4 0.75 0.625 0.0833333
380 4 0.875 0.625 0
381 3 0.8125 0.5625 0.0416667
382 3 0.9375 0.5625 0.125
383 3 0.8125 0.6875 0.125
384 3 0.9375 0.6875 0.0416667
385 4 0 0.75 0
386 4 0.125 0.75 0.0833333
387 4 0 0.875 0.0833333
388 4 0.125 0.875 0
389 3 0.0625 0.8125 0.0416667
390 3 0.1875 0.8125 0.125
391 3 0.0625 0.9375 0.125
392 3 0.1875 0.9375 0.0416667
393 4 0.25 0.75 0
394 4 0.375 0.75 0.0833333
395 4 0.25 0.875 0.0833333
396 4 0.375 0.875 0
397 3 0.3125 0.8125 0.0416667
398 3 0.4375 0.8125 0.125
399 3 0.3125 0.9375 0.125
400 3 0.4375 0.9375 0.0416667
401 4 0.5 0.75 0
402 4 0.625 0.75 0.0833333
403 4 0.5 0.875 0.0833333
404 4 0.625 0.875 0
405 3 0.5625 0.8125 0.0416667
406 3 0.6875 0.8125 0.125
407 3 0.5625 0.9375 0.125
408 3 0.6875 0.9375 0.0416667
409 4 0.75 0.75 0
410 4 0.875 0.75 0.0833333
411 4 0.75 0.875 0.0833333
412 4 0.875 0.875 0
413 3 0.8125 0.8125 0.0416667
414 3 0.9375 0.8125 0.125
415 3 0.8125 0.9375 0.125
416 3 0.9375 0.9375 0.0416667
2 2 0.122712 0.00265437 0.247868
3 2 -5.82429e-05 0.123684 0.245131
5 1 0.0604908 0.0602655 0.205445
6 1 0.186872 0.0587128 0.290881
7 1 0.0644502 0.186809 0.290312
8 1 0.187663 0.191402 0.20723
121 4 0.125 0.125 0.166667
124 4 0 0 0.166667
10 2 0.375411 -0.00751387 0.251171
11 2 0.246912 0.125969 0.248093
13 1 0.311385 0.062059 0.208068
14 1 0.437105 0.0578464 0.290933
15 1 0.311845 0.189209 0.292234
16 1 0.434212 0.191764 0.208121
113 4 0.375 0.125 0.166667
116 4 0.25 0 0.166667
18 2 0.619519 0.00187474 0.251003
19 2 0.492878 0.124388 0.248497
21 1 0.560615 0.0594923 0.209073
22 1 0.683507 0.0629443 0.291069
23 1 0.559881 0.184999 0.290528
24 1 0.684517 0.186791 0.209413
105 4 0.625 0.125 0.166667
108 4 0.5 0 0.166667
26 2 0.870707 0.00368798 0.247972
27 2 0.747427 0.130001 0.250618
29 1 0.811938 0.0676096 0.209787
30 1 0.938083 0.066133 0.291378
31 1 0.814036 0.188909 0.290544
32 1 0.937832 0.187983 0.207356
97 4 0.875 0.125 0.166667
100 4 0.75 0 0.166667
34 2 0.123488 0.250532 0.250384
35 2 -0.00154684 0.376948 0.251646
37 1 0.0600548 0.312649 0.205549
38 1 0.187327 0.31003 0.291991
39 1 0.0643588 0.436964 0.29079
40 1 0.186441 0.437246 0.207121
89 4 0.125 0.375 0.166667
92 4 0 0.25 0.166667
42 2 0.371343 0.251738 0.248396
43 2 0.251601 0.376673 0.251685
45 1 0.311757 0.310954 0.20788
46 1 0.435784 0.312983 0.288866
47 1 0.315455 0.439211 0.290126
48 1 0.438524 0.436652 0.207038
81 4 0.375 0.375 0.166667
84 4 0.25 0.25 0.166667
50 2 0.622588 0.247721 0.249261
51 2 0.503327 0.374277 0.250565
53 1 0.562264 0.313857 0.207319
54 1 0.69097 0.313073 0.290191
55 1 0.565273 0.43892 0.289982
56 1 0.686126 0.439926 0.206273
73 4 0.625 0.375 0.166667
76 4 0.5 0.25 0.166667
58 2 0.871866 0.248949 0.24673
59 2 0.753255 0.378364 0.244886
61 1 0.812138 0.313963 0.204109
62 1 0.937974 0.313832 0.292568
63 1 0.808916 0.43632 0.288921
64 1 0.935991 0.43983 0.206719
65 4 0.875 0.375 0.166667
68 4 0.75 0.25 0.166667
57 4 0.125 0.625 0.166667
60 4 0 0.5 0.166667
66 2 0.126986 0.503139 0.251063
67 2 -0.00106943 0.62455 0.249793
69 1 0.0636829 0.562159 0.206827
70 1 0.189001 0.562224 0.291694
71 1 0.0618067 0.688176 0.29323
72 1 0.187519 0.686491 0.208039
49 4 0.375 0.625 0.166667
52 4 0.25 0.5 0.166667
74 2 0.375895 0.49631 0.248963
75 2 0.251247 0.623704 0.250302
77 1 0.314908 0.562387 0.207421
78 1 0.435552 0.563432 0.290376
79 1 0.311928 0.686829 0.291819
80 1 0.439851 0.685047 0.207449
41 4 0.625 0.625 0.166667
44 4 0.5 0.5 0.166667
82 2 0.624681 0.505988 0.248532
83 2 0.497663 0.622951 0.251524
85 1 0.562966 0.562133 0.206956
86 1 0.686282 0.563212 0.288742
87 1 0.561431 0.691773 0.290235
88 1 0.687072 0.688766 0.209188
33 4 0.875 0.625 0.166667
36 4 0.75 0.5 0.166667
90 2 0.874498 0.501075 0.247516
91 2 0.753339 0.622718 0.251689
93 1 0.812458 0.561952 0.208289
94 1 0.932477 0.562695 0.291229
95 1 0.813614 0.686921 0.292443
96 1 0.936403 0.685841 0.20644
25 4 0.125 0.875 0.166667
28 4 0 0.75 0.166667
98 2 0.126849 0.745035 0.252575
99 2 -0.00319331 0.873501 0.249094
101 1 0.0632654 0.814335 0.208035
102 1 0.185929 0.811986 0.293606
103 1 0.0609766 0.939779 0.291518
104 1 0.187195 0.936699 0.206227
17 4 0.375 0.875 0.166667
20 4 0.25 0.75 0.166667
106 2 0.373394 0.747567 0.252128
107 2 0.249908 0.874853 0.250049
109 1 0.311034 0.80946 0.207968
110 1 0.434929 0.810781 0.29246
111 1 0.313098 0.934516 0.288196
112 1 0.437367 0.93532 0.209124
9 4 0.625 0.875 0.166667
12 4 0.5 0.75 0.166667
114 2 0.620727 0.750483 0.249957
115 2 0.495187 0.871516 0.247557
117 1 0.557924 0.81423 0.207593
118 1 0.684539 0.810041 0.290867
119 1 0.557554 0.933496 0.29092
120 1 0.688534 0.939236 0.208834
1 4 0.875 0.875 0.166667
4 4 0.75 0.75 0.166667
122 2 0.876295 0.744874 0.251434
123 2 0.749127 0.878362 0.250931
125 1 0.814958 0.810697 0.209592
126 1 0.939057 0.812018 0.290139
127 1 0.811402 0.942479 0.290596
128 1 0.934044 0.94143 0.205914
129 2 0.000704538 0.00398057 0.334408
130 2 0.123688 -0.000775173 0.413807
131 2 -0.00177115 0.126688 0.414994
132 2 0.126996 0.124837 0.331866
133 1 0.0604792 0.0652045 0.374906
134 1 0.182257 0.0624501 0.458518
135 1 0.0617384 0.191284 0.454397
136 1 0.189416 0.183735 0.372898
137 2 0.248793 -0.0013933 0.330708
138 2 0.36992 -0.00171287 0.414594
139 2 0.247882 0.124956 0.41579
140 2 0.371662 0.121972 0.332474
141 1 0.306845 0.0585398 0.373376
142 1 0.436831 0.0616348 0.455808
143 1 0.312147 0.189504 0.456527
144 1 0.439911 0.189371 0.37477
145 2 0.493627 -0.00457957 0.334116
146 2 0.625294 -0.00325974 0.417761
147 2 0.500428 0.122739 0.417316
148 2 0.618771 0.124681 0.334322
149 1 0.560854 0.0600858 0.375419
150 1 0.683673 0.0626739 0.458403
151 1 0.561673 0.190648 0.459306
152 1 0.683815 0.18247 0.374786
153 2 0.753307 0.006047 0.33147
154 2 0.873869 -0.00323045 0.418043
155 2 0.749667 0.129429 0.416276
156 2 0.874423 0.128413 0.330777
157 1 0.81181 0.0678028 0.372873
158 1 0.936581 0.0626455 0.457995
159 1 0.81133 0.192183 0.457416
160 1 0.93446 0.187642 0.375048
161 2 -0.00408814 0.249259 0.3331
162 2 0.126363 0.251394 0.414782
163 2 -0.00293335 0.376953 0.413923
164 2 0.125941 0.372562 0.331352
165 1 0.060129 0.310921 0.373362
166 1 0.185325 0.314756 0.455172
167 1 0.0635145 0.436714 0.455662
168 1 0.187517 0.438012 0.373889
169 2 0.249972 0.24618 0.333969
170 2 0.378871 0.251866 0.415711
171 2 0.248457 0.376756 0.41789
172 2 0.373344 0.378191 0.332498
173 1 0.311917 0.311415 0.373205
174 1 0.436882 0.313838 0.457274
175 1 0.314379 0.438044 0.457023
176 1 0.435188 0.438296 0.373264
177 2 0.496234 0.249044 0.333337
178 2 0.624133 0.249635 0.414419
179 2 0.496025 0.372669 0.414137
180 2 0.627621 0.374995 0.328565
181 1 0.561487 0.313633 0.373761
182 1 0.685963 0.311111 0.453956
183 1 0.562043 0.43534 0.457907
184 1 0.688675 0.437823 0.373302
185 2 0.752002 0.249559 0.332413
186 2 0.874674 0.252229 0.416508
187 2 0.749805 0.379504 0.414426
188 2 0.873065 0.375674 0.332172
189 1 0.812716 0.313134 0.374284
190 1 0.935117 0.314457 0.455819
191 1 0.814762 0.440691 0.455808
192 1 0.933324 0.4406 0.371101
193 2 0.00175985 0.503335 0.330985
194 2 0.119757 0.500744 0.41389
195 2 -0.00193812 0.623368 0.416464
196 2 0.127319 0.624421 0.333791
197 1 0.0593401 0.561084 0.374447
198 1 0.185828 0.560012 0.453969
199 1 0.062167 0.689674 0.462412
200 1 0.182829 0.687189 0.375446
201 2 0.250471 0.501871 0.333212
202 2 0.373898 0.501967 0.41641
203 2 0.247612 0.623363 0.413028
204 2 0.37311 0.626171 0.332531
205 1 0.311049 0.563759 0.374454
206 1 0.436793 0.564394 0.455978
207 1 0.311127 0.684193 0.45649
208 1 0.437425 0.685606 0.372367
209 2 0.499633 0.496576 0.328489
210 2 0.626196 0.499063 0.41568
211 2 0.503258 0.61802 0.411192
212 2 0.625271 0.624018 0.332291
213 1 0.56069 0.558271 0.370991
214 1 0.68914 0.561219 0.455612
215 1 0.563487 0.685565 0.456492
216 1 0.686038 0.684952 0.37455
217 2 0.748293 0.499544 0.328895
218 2 0.872247 0.504646 0.415826
219 2 0.750815 0.62273 0.415564
220 2 0.874116 0.622183 0.333882
221 1 0.80833 0.562995 0.371379
222 1 0.936146 0.563106 0.45833
223 1 0.812139 0.687203 0.458597
224 1 0.940192 0.688111 0.375402
225 2 0.00210295 0.7521 0.33348
226 2 0.119204 0.753565 0.420291
227 2 -0.00727074 0.874382 0.416857
228 2 0.126567 0.873336 0.331722
229 1 0.0609354 0.814842 0.374377
230 1 0.182864 0.813617 0.458597
231 1 0.0563035 0.935416 0.457516
232 1 0.186516 0.933988 0.373698
233 2 0.246923 0.747245 0.331401
234 2 0.3705 0.747189 0.412998
235 2 0.247075 0.871449 0.41251
236 2 0.370219 0.873616 0.330857
237 1 0.311566 0.808614 0.374282
238 1 0.434003 0.808297 0.459114
239 1 0.306159 0.938489 0.45782
240 1 0.432594 0.930263 0.374527
241 2 0.500298 0.750481 0.33342
242 2 0.625591 0.746325 0.414017
243 2 0.496282 0.870253 0.418472
244 2 0.621679 0.876006 0.331413
245 1 0.563843 0.812052 0.373023
246 1 0.684243 0.813543 0.454569
247 1 0.558262 0.932377 0.456969
248 1 0.686751 0.935185 0.37183
249 2 0.748836 0.752487 0.332963
250 2 0.869555 0.751031 0.416529
251 2 0.747955 0.873643 0.412119
252 2 0.872557 0.875189 0.330282
253 1 0.813499 0.813353 0.372659
254 1 0.935038 0.809202 0.4566
255 1 0.806723 0.934292 0.453921
256 1 0.934121 0.941786 0.372769
257 2 -0.00680564 -0.00708141 0.488312
258 2 0.113813 0.120462 0.489988
259 2 0.245411 0.00188917 0.490928
260 2 0.369699 0.127118 0.489477
261 2 0.501601 -0.00133561 0.490852
262 2 0.631493 0.130339 0.49083
263 2 0.74749 -0.00279178 0.489807
264 2 0.872232 0.130723 0.489869
265 2 -0.00222764 0.251111 0.486744
266 2 0.120601 0.372219 0.485873
267 2 0.253895 0.260848 0.488003
268 2 0.370662 0.369088 0.48747
269 2 0.497345 0.251541 0.489955
270 2 0.616738 0.365721 0.488957
271 2 0.749262 0.255081 0.487619
272 2 0.88235 0.382078 0.490875
273 2 -0.00937273 0.491302 0.488009
274 2 0.128227 0.622691 0.491523
275 2 0.243695 0.497771 0.48714
276 2 0.376562 0.626168 0.490091
277 2 0.496109 0.502665 0.491817
278 2 0.623902 0.625014 0.489477
279 2 0.749798 0.502441 0.489225
280 2 0.875389 0.621358 0.494232
281 2 0.0101856 0.765064 0.493759
282 2 0.116563 0.871727 0.489415
283 2 0.247622 0.748837 0.492443
284 2 0.366981 0.873743 0.491585
285 2 0.497808 0.743764 0.49049
286 2 0.629162 0.875442 0.487927
287 2 0.741147 0.746674 0.486949
288 2 0.870121 0.87639 0.486447
