<PP_INFO>
Generated using Fritz-Haber code                                                
Author: unknown    Generation date: as well                                     
OPIUM generated Ti potential                                                    
    1        The Pseudo was generated with a Scalar-Relativistic Calculation
nl pn  l   occ               Rcut            Rcut US             E pseu
s   0  0  2.00      0.00000000000      0.00000000000      0.00000000000
p   0  1  6.00      0.00000000000      0.00000000000      0.00000000000
d   0  2  1.00      0.00000000000      0.00000000000      0.00000000000
f   0  3  0.00      0.00000000000      0.00000000000      0.00000000000
</PP_INFO>


<PP_HEADER>
   0                   Version Number
  Ti                   Element
   NC                  Norm - Conserving pseudopotential
    F                  Nonlinear Core Correction
SLA  PW   PBE  PBE     PBE  Exchange-Correlation functional
   12.00000000000      Z valence
    0.00000000000      Total energy
  0.0000000  0.0000000 Suggested cutoff for wfc and rho
    2                  Max angular momentum component
 1124                  Number of points in mesh
    4    3             Number of Wavefunctions, Number of Projectors
 Wavefunctions         nl  l   occ
                       s   0  2.00
                       p   1  6.00
                       d   2  1.00
                       f   3  0.00
</PP_HEADER>


<PP_MESH>
  <PP_R>
  3.56882927752E-05  3.61552693524E-05  3.66283562563E-05  3.71076334395E-05
  3.75931819011E-05  3.80850836999E-05  3.85834219685E-05  3.90882809272E-05
  3.95997458985E-05  4.01179033211E-05  4.06428407648E-05  4.11746469453E-05
  4.17134117392E-05  4.22592261989E-05  4.28121825684E-05  4.33723742987E-05
  4.39398960635E-05  4.45148437753E-05  4.50973146017E-05  4.56874069815E-05
  4.62852206419E-05  4.68908566147E-05  4.75044172539E-05  4.81260062526E-05
  4.87557286610E-05  4.93936909036E-05  5.00400007975E-05  5.06947675706E-05
  5.13581018801E-05  5.20301158310E-05  5.27109229954E-05  5.34006384312E-05
  5.40993787020E-05  5.48072618966E-05  5.55244076488E-05  5.62509371582E-05
  5.69869732097E-05  5.77326401954E-05  5.84880641347E-05  5.92533726961E-05
  6.00286952184E-05  6.08141627331E-05  6.16099079861E-05  6.24160654601E-05
  6.32327713978E-05  6.40601638243E-05  6.48983825710E-05  6.57475692988E-05
  6.66078675223E-05  6.74794226340E-05  6.83623819287E-05  6.92568946286E-05
  7.01631119086E-05  7.10811869214E-05  7.20112748241E-05  7.29535328036E-05
  7.39081201037E-05  7.48751980521E-05  7.58549300872E-05  7.68474817859E-05
  7.78530208920E-05  7.88717173440E-05  7.99037433039E-05  8.09492731865E-05
  8.20084836891E-05  8.30815538205E-05  8.41686649323E-05  8.52700007488E-05
  8.63857473984E-05  8.75160934448E-05  8.86612299194E-05  8.98213503529E-05
  9.09966508083E-05  9.21873299143E-05  9.33935888985E-05  9.46156316215E-05
  9.58536646114E-05  9.71078970988E-05  9.83785410520E-05  9.96658112127E-05
  1.00969925133E-04  1.02291103210E-04  1.03629568728E-04  1.04985547889E-04
  1.06359269858E-04  1.07750966797E-04  1.09160873905E-04  1.10589229461E-04
  1.12036274860E-04  1.13502254656E-04  1.14987416603E-04  1.16492011698E-04
  1.18016294219E-04  1.19560521775E-04  1.21124955344E-04  1.22709859319E-04
  1.24315501552E-04  1.25942153400E-04  1.27590089773E-04  1.29259589174E-04
  1.30950933753E-04  1.32664409352E-04  1.34400305552E-04  1.36158915723E-04
  1.37940537075E-04  1.39745470706E-04  1.41574021654E-04  1.43426498949E-04
  1.45303215664E-04  1.47204488968E-04  1.49130640181E-04  1.51081994827E-04
  1.53058882690E-04  1.55061637868E-04  1.57090598832E-04  1.59146108481E-04
  1.61228514201E-04  1.63338167924E-04  1.65475426186E-04  1.67640650189E-04
  1.69834205861E-04  1.72056463918E-04  1.74307799927E-04  1.76588594369E-04
  1.78899232703E-04  1.81240105434E-04  1.83611608174E-04  1.86014141712E-04
  1.88448112084E-04  1.90913930635E-04  1.93412014094E-04  1.95942784644E-04
  1.98506669992E-04  2.01104103438E-04  2.03735523957E-04  2.06401376265E-04
  2.09102110896E-04  2.11838184282E-04  2.14610058825E-04  2.17418202979E-04
  2.20263091326E-04  2.23145204661E-04  2.26065030066E-04  2.29023060999E-04
  2.32019797374E-04  2.35055745648E-04  2.38131418902E-04  2.41247336932E-04
  2.44404026337E-04  2.47602020604E-04  2.50841860201E-04  2.54124092670E-04
  2.57449272716E-04  2.60817962301E-04  2.64230730743E-04  2.67688154807E-04
  2.71190818807E-04  2.74739314700E-04  2.78334242191E-04  2.81976208832E-04
  2.85665830123E-04  2.89403729620E-04  2.93190539035E-04  2.97026898350E-04
  3.00913455917E-04  3.04850868574E-04  3.08839801754E-04  3.12880929595E-04
  3.16974935059E-04  3.21122510040E-04  3.25324355490E-04  3.29581181531E-04
  3.33893707575E-04  3.38262662451E-04  3.42688784522E-04  3.47172821813E-04
  3.51715532138E-04  3.56317683224E-04  3.60980052847E-04  3.65703428958E-04
  3.70488609819E-04  3.75336404137E-04  3.80247631200E-04  3.85223121019E-04
  3.90263714461E-04  3.95370263400E-04  4.00543630855E-04  4.05784691136E-04
  4.11094329996E-04  4.16473444777E-04  4.21922944561E-04  4.27443750326E-04
  4.33036795103E-04  4.38703024129E-04  4.44443395010E-04  4.50258877883E-04
  4.56150455577E-04  4.62119123785E-04  4.68165891224E-04  4.74291779813E-04
  4.80497824841E-04  4.86785075146E-04  4.93154593287E-04  4.99607455728E-04
  5.06144753018E-04  5.12767589977E-04  5.19477085878E-04  5.26274374643E-04
  5.33160605030E-04  5.40136940828E-04  5.47204561055E-04  5.54364660155E-04
  5.61618448202E-04  5.68967151104E-04  5.76412010808E-04  5.83954285514E-04
  5.91595249884E-04  5.99336195260E-04  6.07178429879E-04  6.15123279097E-04
  6.23172085614E-04  6.31326209697E-04  6.39587029412E-04  6.47955940857E-04
  6.56434358398E-04  6.65023714908E-04  6.73725462008E-04  6.82541070316E-04
  6.91472029688E-04  7.00519849480E-04  7.09686058793E-04  7.18972206740E-04
  7.28379862700E-04  7.37910616591E-04  7.47566079133E-04  7.57347882121E-04
  7.67257678704E-04  7.77297143660E-04  7.87467973684E-04  7.97771887670E-04
  8.08210627004E-04  8.18785955857E-04  8.29499661485E-04  8.40353554531E-04
  8.51349469327E-04  8.62489264210E-04  8.73774821831E-04  8.85208049477E-04
  8.96790879391E-04  9.08525269097E-04  9.20413201736E-04  9.32456686397E-04
  9.44657758457E-04  9.57018479927E-04  9.69540939798E-04  9.82227254395E-04
  9.95079567736E-04  1.00810005189E-03  1.02129090736E-03  1.03465436342E-03
  1.04819267852E-03  1.06190814069E-03  1.07580306786E-03  1.08987980831E-03
  1.10414074104E-03  1.11858827618E-03  1.13322485540E-03  1.14805295233E-03
  1.16307507293E-03  1.17829375599E-03  1.19371157350E-03  1.20933113110E-03
  1.22515506855E-03  1.24118606011E-03  1.25742681508E-03  1.27388007817E-03
  1.29054863002E-03  1.30743528767E-03  1.32454290499E-03  1.34187437321E-03
  1.35943262140E-03  1.37722061694E-03  1.39524136603E-03  1.41349791424E-03
  1.43199334696E-03  1.45073078997E-03  1.46971340993E-03  1.48894441496E-03
  1.50842705513E-03  1.52816462307E-03  1.54816045447E-03  1.56841792867E-03
  1.58894046923E-03  1.60973154451E-03  1.63079466826E-03  1.65213340018E-03
  1.67375134658E-03  1.69565216095E-03  1.71783954456E-03  1.74031724715E-03
  1.76308906749E-03  1.78615885408E-03  1.80953050577E-03  1.83320797242E-03
  1.85719525558E-03  1.88149640916E-03  1.90611554012E-03  1.93105680913E-03
  1.95632443134E-03  1.98192267704E-03  2.00785587239E-03  2.03412840015E-03
  2.06074470046E-03  2.08770927153E-03  2.11502667043E-03  2.14270151388E-03
  2.17073847898E-03  2.19914230405E-03  2.22791778940E-03  2.25706979817E-03
  2.28660325710E-03  2.31652315742E-03  2.34683455567E-03  2.37754257455E-03
  2.40865240378E-03  2.44016930100E-03  2.47209859264E-03  2.50444567482E-03
  2.53721601429E-03  2.57041514930E-03  2.60404869059E-03  2.63812232230E-03
  2.67264180297E-03  2.70761296646E-03  2.74304172299E-03  2.77893406009E-03
  2.81529604367E-03  2.85213381898E-03  2.88945361170E-03  2.92726172895E-03
  2.96556456040E-03  3.00436857932E-03  3.04368034368E-03  3.08350649726E-03
  3.12385377078E-03  3.16472898302E-03  3.20613904200E-03  3.24809094610E-03
  3.29059178530E-03  3.33364874235E-03  3.37726909396E-03  3.42146021210E-03
  3.46622956515E-03  3.51158471925E-03  3.55753333952E-03  3.60408319140E-03
  3.65124214191E-03  3.69901816104E-03  3.74741932303E-03  3.79645380782E-03
  3.84612990233E-03  3.89645600195E-03  3.94744061191E-03  3.99909234873E-03
  4.05141994167E-03  4.10443223423E-03  4.15813818560E-03  4.21254687222E-03
  4.26766748929E-03  4.32350935232E-03  4.38008189873E-03  4.43739468940E-03
  4.49545741033E-03  4.55427987427E-03  4.61387202234E-03  4.67424392577E-03
  4.73540578755E-03  4.79736794417E-03  4.86014086740E-03  4.92373516600E-03
  4.98816158756E-03  5.05343102030E-03  5.11955449491E-03  5.18654318642E-03
  5.25440841607E-03  5.32316165325E-03  5.39281451742E-03  5.46337878007E-03
  5.53486636675E-03  5.60728935901E-03  5.68065999652E-03  5.75499067909E-03
  5.83029396878E-03  5.90658259203E-03  5.98386944180E-03  6.06216757974E-03
  6.14149023844E-03  6.22185082360E-03  6.30326291636E-03  6.38574027555E-03
  6.46929684005E-03  6.55394673112E-03  6.63970425478E-03  6.72658390426E-03
  6.81460036243E-03  6.90376850428E-03  6.99410339944E-03  7.08562031473E-03
  7.17833471671E-03  7.27226227434E-03  7.36741886161E-03  7.46382056019E-03
  7.56148366222E-03  7.66042467298E-03  7.76066031375E-03  7.86220752458E-03
  7.96508346720E-03  8.06930552787E-03  8.17489132039E-03  8.28185868900E-03
  8.39022571144E-03  8.50001070199E-03  8.61123221458E-03  8.72390904592E-03
  8.83806023864E-03  8.95370508458E-03  9.07086312799E-03  9.18955416886E-03
  9.30979826626E-03  9.43161574172E-03  9.55502718269E-03  9.68005344599E-03
  9.80671566137E-03  9.93503523503E-03  1.00650338533E-02  1.01967334862E-02
  1.03301563914E-02  1.04653251176E-02  1.06022625086E-02  1.07409917073E-02
  1.08815361591E-02  1.10239196164E-02  1.11681661424E-02  1.13143001150E-02
  1.14623462313E-02  1.16123295113E-02  1.17642753027E-02  1.19182092846E-02
  1.20741574723E-02  1.22321462213E-02  1.23922022321E-02  1.25543525546E-02
  1.27186245926E-02  1.28850461084E-02  1.30536452276E-02  1.32244504440E-02
  1.33974906240E-02  1.35727950118E-02  1.37503932342E-02  1.39303153058E-02
  1.41125916339E-02  1.42972530235E-02  1.44843306829E-02  1.46738562287E-02
  1.48658616911E-02  1.50603795195E-02  1.52574425879E-02  1.54570842004E-02
  1.56593380970E-02  1.58642384589E-02  1.60718199149E-02  1.62821175467E-02
  1.64951668952E-02  1.67110039661E-02  1.69296652364E-02  1.71511876605E-02
  1.73756086761E-02  1.76029662109E-02  1.78332986889E-02  1.80666450368E-02
  1.83030446908E-02  1.85425376028E-02  1.87851642479E-02  1.90309656304E-02
  1.92799832914E-02  1.95322593155E-02  1.97878363378E-02  2.00467575517E-02
  2.03090667152E-02  2.05748081594E-02  2.08440267951E-02  2.11167681210E-02
  2.13930782309E-02  2.16730038220E-02  2.19565922023E-02  2.22438912989E-02
  2.25349496661E-02  2.28298164935E-02  2.31285416141E-02  2.34311755134E-02
  2.37377693370E-02  2.40483749002E-02  2.43630446960E-02  2.46818319044E-02
  2.50047904010E-02  2.53319747668E-02  2.56634402966E-02  2.59992430088E-02
  2.63394396551E-02  2.66840877293E-02  2.70332454778E-02  2.73869719092E-02
  2.77453268040E-02  2.81083707251E-02  2.84761650278E-02  2.88487718701E-02
  2.92262542235E-02  2.96086758834E-02  2.99961014801E-02  3.03885964892E-02
  3.07862272436E-02  3.11890609435E-02  3.15971656691E-02  3.20106103908E-02
  3.24294649819E-02  3.28538002297E-02  3.32836878480E-02  3.37192004887E-02
  3.41604117546E-02  3.46073962113E-02  3.50602294004E-02  3.55189878517E-02
  3.59837490965E-02  3.64545916806E-02  3.69315951774E-02  3.74148402017E-02
  3.79044084230E-02  3.84003825796E-02  3.89028464922E-02  3.94118850784E-02
  3.99275843671E-02  4.04500315125E-02  4.09793148096E-02  4.15155237084E-02
  4.20587488294E-02  4.26090819792E-02  4.31666161652E-02  4.37314456121E-02
  4.43036657774E-02  4.48833733677E-02  4.54706663548E-02  4.60656439928E-02
  4.66684068343E-02  4.72790567477E-02  4.78976969341E-02  4.85244319453E-02
  4.91593677010E-02  4.98026115069E-02  5.04542720726E-02  5.11144595304E-02
  5.17832854536E-02  5.24608628752E-02  5.31473063075E-02  5.38427317610E-02
  5.45472567644E-02  5.52610003840E-02  5.59840832442E-02  5.67166275477E-02
  5.74587570963E-02  5.82105973116E-02  5.89722752563E-02  5.97439196560E-02
  6.05256609202E-02  6.13176311652E-02  6.21199642358E-02  6.29327957283E-02
  6.37562630129E-02  6.45905052578E-02  6.54356634518E-02  6.62918804287E-02
  6.71593008911E-02  6.80380714353E-02  6.89283405754E-02  6.98302587692E-02
  7.07439784429E-02  7.16696540173E-02  7.26074419338E-02  7.35575006809E-02
  7.45199908206E-02  7.54950750162E-02  7.64829180591E-02  7.74836868972E-02
  7.84975506628E-02  7.95246807012E-02  8.05652506000E-02  8.16194362180E-02
  8.26874157149E-02  8.37693695818E-02  8.48654806716E-02  8.59759342296E-02
  8.71009179251E-02  8.82406218831E-02  8.93952387162E-02  9.05649635574E-02
  9.17499940930E-02  9.29505305960E-02  9.41667759598E-02  9.53989357330E-02
  9.66472181533E-02  9.79118341835E-02  9.91929975468E-02  1.00490924763E-01
  1.01805835184E-01  1.03137951034E-01  1.04487497443E-01  1.05854702488E-01
  1.07239797229E-01  1.08643015752E-01  1.10064595202E-01  1.11504775832E-01
  1.12963801033E-01  1.14441917386E-01  1.15939374696E-01  1.17456426035E-01
  1.18993327791E-01  1.20550339701E-01  1.22127724907E-01  1.23725749988E-01
  1.25344685016E-01  1.26984803593E-01  1.28646382905E-01  1.30329703762E-01
  1.32035050648E-01  1.33762711773E-01  1.35512979114E-01  1.37286148471E-01
  1.39082519515E-01  1.40902395834E-01  1.42746084995E-01  1.44613898583E-01
  1.46506152264E-01  1.48423165834E-01  1.50365263272E-01  1.52332772798E-01
  1.54326026924E-01  1.56345362517E-01  1.58391120847E-01  1.60463647655E-01
  1.62563293200E-01  1.64690412329E-01  1.66845364530E-01  1.69028513995E-01
  1.71240229680E-01  1.73480885372E-01  1.75750859747E-01  1.78050536435E-01
  1.80380304088E-01  1.82740556441E-01  1.85131692383E-01  1.87554116022E-01
  1.90008236753E-01  1.92494469328E-01  1.95013233927E-01  1.97564956226E-01
  2.00150067473E-01  2.02769004558E-01  2.05422210088E-01  2.08110132460E-01
  2.10833225939E-01  2.13591950735E-01  2.16386773080E-01  2.19218165304E-01
  2.22086605920E-01  2.24992579701E-01  2.27936577763E-01  2.30919097650E-01
  2.33940643413E-01  2.37001725702E-01  2.40102861847E-01  2.43244575947E-01
  2.46427398959E-01  2.49651868789E-01  2.52918530378E-01  2.56227935801E-01
  2.59580644355E-01  2.62977222655E-01  2.66418244732E-01  2.69904292127E-01
  2.73435953989E-01  2.77013827178E-01  2.80638516364E-01  2.84310634127E-01
  2.88030801063E-01  2.91799645891E-01  2.95617805553E-01  2.99485925328E-01
  3.03404658937E-01  3.07374668655E-01  3.11396625424E-01  3.15471208964E-01
  3.19599107889E-01  3.23781019824E-01  3.28017651522E-01  3.32309718984E-01
  3.36657947580E-01  3.41063072169E-01  3.45525837230E-01  3.50046996979E-01
  3.54627315505E-01  3.59267566890E-01  3.63968535350E-01  3.68731015358E-01
  3.73555811785E-01  3.78443740034E-01  3.83395626175E-01  3.88412307090E-01
  3.93494630609E-01  3.98643455658E-01  4.03859652399E-01  4.09144102382E-01
  4.14497698693E-01  4.19921346102E-01  4.25415961217E-01  4.30982472642E-01
  4.36621821131E-01  4.42334959747E-01  4.48122854024E-01  4.53986482130E-01
  4.59926835031E-01  4.65944916663E-01  4.72041744095E-01  4.78218347704E-01
  4.84475771353E-01  4.90815072560E-01  4.97237322683E-01  5.03743607097E-01
  5.10335025379E-01  5.17012691495E-01  5.23777733986E-01  5.30631296162E-01
  5.37574536289E-01  5.44608627792E-01  5.51734759450E-01  5.58954135595E-01
  5.66267976320E-01  5.73677517680E-01  5.81184011906E-01  5.88788727613E-01
  5.96492950017E-01  6.04297981149E-01  6.12205140078E-01  6.20215763133E-01
  6.28331204128E-01  6.36552834592E-01  6.44882044001E-01  6.53320240009E-01
  6.61868848693E-01  6.70529314788E-01  6.79303101933E-01  6.88191692919E-01
  6.97196589939E-01  7.06319314842E-01  7.15561409390E-01  7.24924435520E-01
  7.34409975604E-01  7.44019632723E-01  7.53755030930E-01  7.63617815532E-01
  7.73609653361E-01  7.83732233064E-01  7.93987265379E-01  8.04376483432E-01
  8.14901643025E-01  8.25564522935E-01  8.36366925215E-01  8.47310675495E-01
  8.58397623297E-01  8.69629642340E-01  8.81008630862E-01  8.92536511940E-01
  9.04215233812E-01  9.16046770211E-01  9.28033120695E-01  9.40176310985E-01
  9.52478393309E-01  9.64941446748E-01  9.77567577589E-01  9.90358919677E-01
  1.00331763478E+00  1.01644591295E+00  1.02974597290E+00  1.04322006237E+00
  1.05687045851E+00  1.07069946828E+00  1.08470942880E+00  1.09890270780E+00
  1.11328170398E+00  1.12784884741E+00  1.14260659998E+00  1.15755745578E+00
  1.17270394155E+00  1.18804861708E+00  1.20359407565E+00  1.21934294449E+00
  1.23529788518E+00  1.25146159416E+00  1.26783680312E+00  1.28442627953E+00
  1.30123282703E+00  1.31825928597E+00  1.33550853388E+00  1.35298348590E+00
  1.37068709535E+00  1.38862235419E+00  1.40679229351E+00  1.42519998407E+00
  1.44384853682E+00  1.46274110341E+00  1.48188087673E+00  1.50127109145E+00
  1.52091502455E+00  1.54081599591E+00  1.56097736884E+00  1.58140255067E+00
  1.60209499329E+00  1.62305819377E+00  1.64429569495E+00  1.66581108602E+00
  1.68760800313E+00  1.70969013001E+00  1.73206119858E+00  1.75472498963E+00
  1.77768533337E+00  1.80094611016E+00  1.82451125114E+00  1.84838473885E+00
  1.87257060799E+00  1.89707294602E+00  1.92189589389E+00  1.94704364674E+00
  1.97252045460E+00  1.99833062311E+00  2.02447851426E+00  2.05096854709E+00
  2.07780519849E+00  2.10499300391E+00  2.13253655816E+00  2.16044051616E+00
  2.18870959376E+00  2.21734856848E+00  2.24636228039E+00  2.27575563287E+00
  2.30553359347E+00  2.33570119473E+00  2.36626353506E+00  2.39722577955E+00
  2.42859316091E+00  2.46037098029E+00  2.49256460822E+00  2.52517948551E+00
  2.55822112414E+00  2.59169510822E+00  2.62560709495E+00  2.65996281553E+00
  2.69476807615E+00  2.73002875899E+00  2.76575082319E+00  2.80194030586E+00
  2.83860332312E+00  2.87574607109E+00  2.91337482699E+00  2.95149595017E+00
  2.99011588319E+00  3.02924115291E+00  3.06887837160E+00  3.10903423803E+00
  3.14971553866E+00  3.19092914870E+00  3.23268203337E+00  3.27498124899E+00
  3.31783394424E+00  3.36124736132E+00  3.40522883721E+00  3.44978580487E+00
  3.49492579455E+00  3.54065643500E+00  3.58698545482E+00  3.63392068372E+00
  3.68147005386E+00  3.72964160120E+00  3.77844346686E+00  3.82788389845E+00
  3.87797125153E+00  3.92871399098E+00  3.98012069244E+00  4.03220004378E+00
  4.08496084652E+00  4.13841201737E+00  4.19256258970E+00  4.24742171508E+00
  4.30299866484E+00  4.35930283162E+00  4.41634373095E+00  4.47413100289E+00
  4.53267441361E+00  4.59198385710E+00  4.65206935679E+00  4.71294106727E+00
  4.77460927601E+00  4.83708440508E+00  4.90037701293E+00  4.96449779616E+00
  5.02945759133E+00  5.09526737680E+00  5.16193827459E+00  5.22948155223E+00
  5.29790862470E+00  5.36723105634E+00  5.43746056281E+00  5.50860901304E+00
  5.58068843132E+00  5.65371099922E+00  5.72768905773E+00  5.80263510933E+00
  5.87856182007E+00  5.95548202176E+00  6.03340871407E+00  6.11235506683E+00
  6.19233442213E+00  6.27336029669E+00  6.35544638407E+00  6.43860655702E+00
  6.52285486980E+00  6.60820556058E+00  6.69467305383E+00  6.78227196275E+00
  6.87101709179E+00  6.96092343906E+00  7.05200619896E+00  7.14428076469E+00
  7.23776273088E+00  7.33246789620E+00  7.42841226604E+00  7.52561205523E+00
  7.62408369078E+00  7.72384381461E+00  7.82490928643E+00  7.92729718655E+00
  8.03102481876E+00  8.13610971327E+00  8.24256962970E+00  8.35042256001E+00
  8.45968673160E+00  8.57038061039E+00  8.68252290390E+00  8.79613256445E+00
  8.91122879233E+00  9.02783103909E+00  9.14595901079E+00  9.26563267132E+00
  9.38687224583E+00  9.50969822409E+00  9.63413136398E+00  9.76019269501E+00
  9.88790352183E+00  1.00172854279E+01  1.01483602790E+01  1.02811502272E+01
  1.04156777142E+01  1.05519654756E+01  1.06900365442E+01  1.08299142544E+01
  1.09716222460E+01  1.11151844678E+01  1.12606251822E+01  1.14079689691E+01
  1.15572407299E+01  1.17084656919E+01  1.18616694125E+01  1.20168777834E+01
  1.21741170353E+01  1.23334137419E+01  1.24947948248E+01  1.26582875578E+01
  1.28239195715E+01  1.29917188581E+01  1.31617137762E+01  1.33339330552E+01
  1.35084058006E+01  1.36851614987E+01  1.38642300217E+01  1.40456416326E+01
  1.42294269903E+01  1.44156171551E+01  1.46042435935E+01  1.47953381838E+01
  1.49889332215E+01  1.51850614246E+01  1.53837559392E+01  1.55850503451E+01
  1.57889786617E+01  1.59955753532E+01  1.62048753351E+01  1.64169139794E+01
  1.66317271213E+01  1.68493510646E+01  1.70698225884E+01  1.72931789528E+01
  1.75194579056E+01  1.77486976886E+01  1.79809370436E+01  1.82162152198E+01
  1.84545719798E+01  1.86960476063E+01  1.89406829094E+01  1.91885192330E+01
  1.94395984620E+01  1.96939630294E+01  1.99516559234E+01  2.02127206948E+01
  2.04772014641E+01  2.07451429291E+01  2.10165903727E+01  2.12915896701E+01
  2.15701872968E+01  2.18524303365E+01  2.21383664889E+01  2.24280440780E+01
  2.27215120599E+01  2.30188200314E+01  2.33200182383E+01  2.36251575838E+01
  2.39342896371E+01  2.42474666424E+01  2.45647415272E+01  2.48861679118E+01
  2.52118001180E+01  2.55416931785E+01  2.58759028459E+01  2.62144856024E+01
  2.65574986694E+01  2.69050000169E+01  2.72570483735E+01  2.76137032361E+01
  2.79750248802E+01  2.83410743702E+01  2.87119135691E+01  2.90876051498E+01
  2.94682126050E+01  2.98538002583E+01  3.02444332749E+01  3.06401776726E+01
  3.10411003334E+01  3.14472690139E+01  3.18587523578E+01  3.22756199067E+01
  3.26979421121E+01  3.31257903476E+01  3.35592369205E+01  3.39983550843E+01
  3.44432190510E+01  3.48939040037E+01  3.53504861093E+01  3.58130425311E+01
  3.62816514424E+01  3.67563920391E+01  3.72373445536E+01  3.77245902679E+01
  3.82182115277E+01  3.87182917563E+01  3.92249154683E+01  3.97381682844E+01
  4.02581369456E+01  4.07849093276E+01  4.13185744565E+01  4.18592225227E+01
  4.24069448972E+01  4.29618341463E+01  4.35239840477E+01  4.40934896059E+01
  4.46704470688E+01  4.52549539436E+01  4.58471090134E+01  4.64470123536E+01
  4.70547653495E+01  4.76704707128E+01  4.82942324991E+01  4.89261561255E+01
  4.95663483889E+01  5.02149174831E+01  5.08719730178E+01  5.15376260371E+01
  5.22119890378E+01  5.28951759890E+01  5.35873023507E+01  5.42884850942E+01
  5.49988427208E+01  5.57184952827E+01  5.64475644030E+01  5.71861732960E+01
  5.79344467884E+01  5.86925113402E+01  5.94604950661E+01  6.02385277572E+01
  6.10267409028E+01  6.18252677129E+01  6.26342431405E+01  6.34538039041E+01
  6.42840885117E+01  6.51252372832E+01  6.59773923748E+01  6.68406978028E+01
  6.77152994678E+01  6.86013451796E+01  6.94989846819E+01  7.04083696781E+01
  7.13296538564E+01  7.22629929159E+01  7.32085445933E+01  7.41664686889E+01
  7.51369270942E+01  7.61200838191E+01  7.71161050192E+01  7.81251590247E+01
  </PP_R>
  <PP_RAB>
  4.63947806077E-07  4.70018501582E-07  4.76168631332E-07  4.82399234713E-07
  4.88711364714E-07  4.95106088099E-07  5.01584485590E-07  5.08147652054E-07
  5.14796696681E-07  5.21532743174E-07  5.28356929942E-07  5.35270410289E-07
  5.42274352609E-07  5.49369940586E-07  5.56558373390E-07  5.63840865884E-07
  5.71218648826E-07  5.78692969079E-07  5.86265089822E-07  5.93936290760E-07
  6.01707868344E-07  6.09581135991E-07  6.17557424300E-07  6.25638081284E-07
  6.33824472593E-07  6.42117981747E-07  6.50520010367E-07  6.59031978418E-07
  6.67655324441E-07  6.76391505803E-07  6.85241998940E-07  6.94208299606E-07
  7.03291923126E-07  7.12494404655E-07  7.21817299435E-07  7.31262183056E-07
  7.40830651727E-07  7.50524322541E-07  7.60344833751E-07  7.70293845049E-07
  7.80373037839E-07  7.90584115531E-07  8.00928803819E-07  8.11408850982E-07
  8.22026028171E-07  8.32782129716E-07  8.43678973423E-07  8.54718400885E-07
  8.65902277790E-07  8.77232494242E-07  8.88710965073E-07  9.00339630172E-07
  9.12120454811E-07  9.24055429979E-07  9.36146572713E-07  9.48395926446E-07
  9.60805561349E-07  9.73377574677E-07  9.86114091133E-07  9.99017263217E-07
  1.01208927160E-06  1.02533232547E-06  1.03874866295E-06  1.05234055142E-06
  1.06611028796E-06  1.08006019967E-06  1.09419264412E-06  1.10851000973E-06
  1.12301471618E-06  1.13770921478E-06  1.15259598895E-06  1.16767755459E-06
  1.18295646051E-06  1.19843528889E-06  1.21411665568E-06  1.23000321108E-06
  1.24609763995E-06  1.26240266228E-06  1.27892103368E-06  1.29565554576E-06
  1.31260902673E-06  1.32978434174E-06  1.34718439346E-06  1.36481212256E-06
  1.38267050816E-06  1.40076256836E-06  1.41909136077E-06  1.43765998299E-06
  1.45647157318E-06  1.47552931053E-06  1.49483641584E-06  1.51439615207E-06
  1.53421182485E-06  1.55428678308E-06  1.57462441947E-06  1.59522817114E-06
  1.61610152017E-06  1.63724799420E-06  1.65867116704E-06  1.68037465926E-06
  1.70236213879E-06  1.72463732157E-06  1.74720397217E-06  1.77006590440E-06
  1.79322698197E-06  1.81669111918E-06  1.84046228151E-06  1.86454448634E-06
  1.88894180363E-06  1.91365835658E-06  1.93869832235E-06  1.96406593275E-06
  1.98976547496E-06  2.01580129228E-06  2.04217778481E-06  2.06889941025E-06
  2.09597068462E-06  2.12339618302E-06  2.15118054042E-06  2.17932845246E-06
  2.20784467620E-06  2.23673403094E-06  2.26600139905E-06  2.29565172679E-06
  2.32569002514E-06  2.35612137064E-06  2.38695090626E-06  2.41818384226E-06
  2.44982545709E-06  2.48188109825E-06  2.51435618322E-06  2.54725620038E-06
  2.58058670989E-06  2.61435334470E-06  2.64856181145E-06  2.68321789144E-06
  2.71832744165E-06  2.75389639567E-06  2.78993076473E-06  2.82643663872E-06
  2.86342018724E-06  2.90088766059E-06  2.93884539085E-06  2.97729979298E-06
  3.01625736587E-06  3.05572469342E-06  3.09570844572E-06  3.13621538012E-06
  3.17725234238E-06  3.21882626785E-06  3.26094418262E-06  3.30361320471E-06
  3.34684054531E-06  3.39063350992E-06  3.43499949966E-06  3.47994601249E-06
  3.52548064449E-06  3.57161109110E-06  3.61834514849E-06  3.66569071482E-06
  3.71365579160E-06  3.76224848506E-06  3.81147700746E-06  3.86134967854E-06
  3.91187492692E-06  3.96306129146E-06  4.01491742280E-06  4.06745208474E-06
  4.12067415576E-06  4.17459263052E-06  4.22921662137E-06  4.28455535990E-06
  4.34061819848E-06  4.39741461187E-06  4.45495419879E-06  4.51324668358E-06
  4.57230191779E-06  4.63212988192E-06  4.69274068701E-06  4.75414457646E-06
  4.81635192765E-06  4.87937325378E-06  4.94321920561E-06  5.00790057324E-06
  5.07342828799E-06  5.13981342420E-06  5.20706720111E-06  5.27520098477E-06
  5.34422628995E-06  5.41415478210E-06  5.48499827929E-06  5.55676875424E-06
  5.62947833634E-06  5.70313931367E-06  5.77776413513E-06  5.85336541247E-06
  5.92995592250E-06  6.00754860920E-06  6.08615658591E-06  6.16579313757E-06
  6.24647172294E-06  6.32820597690E-06  6.41100971273E-06  6.49489692447E-06
  6.57988178924E-06  6.66597866970E-06  6.75320211641E-06  6.84156687036E-06
  6.93108786539E-06  7.02178023077E-06  7.11365929372E-06  7.20674058202E-06
  7.30103982663E-06  7.39657296435E-06  7.49335614051E-06  7.59140571169E-06
  7.69073824850E-06  7.79137053838E-06  7.89331958842E-06  7.99660262827E-06
  8.10123711299E-06  8.20724072606E-06  8.31463138235E-06  8.42342723113E-06
  8.53364665917E-06  8.64530829380E-06  8.75843100611E-06  8.87303391410E-06
  8.98913638595E-06  9.10675804324E-06  9.22591876431E-06  9.34663868762E-06
  9.46893821510E-06  9.59283801569E-06  9.71835902873E-06  9.84552246757E-06
  9.97434982315E-06  1.01048628676E-05  1.02370836579E-05  1.03710345397E-05
  1.05067381510E-05  1.06442174261E-05  1.07834955993E-05  1.09245962089E-05
  1.10675431013E-05  1.12123604347E-05  1.13590726838E-05  1.15077046432E-05
  1.16582814321E-05  1.18108284983E-05  1.19653716226E-05  1.21219369232E-05
  1.22805508599E-05  1.24412402391E-05  1.26040322174E-05  1.27689543071E-05
  1.29360343806E-05  1.31053006746E-05  1.32767817956E-05  1.34505067244E-05
  1.36265048208E-05  1.38048058290E-05  1.39854398822E-05  1.41684375080E-05
  1.43538296335E-05  1.45416475903E-05  1.47319231203E-05  1.49246883802E-05
  1.51199759481E-05  1.53178188278E-05  1.55182504554E-05  1.57213047043E-05
  1.59270158911E-05  1.61354187815E-05  1.63465485960E-05  1.65604410162E-05
  1.67771321903E-05  1.69966587397E-05  1.72190577649E-05  1.74443668518E-05
  1.76726240782E-05  1.79038680202E-05  1.81381377584E-05  1.83754728852E-05
  1.86159135105E-05  1.88595002696E-05  1.91062743291E-05  1.93562773944E-05
  1.96095517167E-05  1.98661400999E-05  2.01260859081E-05  2.03894330727E-05
  2.06562261000E-05  2.09265100786E-05  2.12003306873E-05  2.14777342023E-05
  2.17587675056E-05  2.20434780923E-05  2.23319140793E-05  2.26241242129E-05
  2.29201578774E-05  2.32200651030E-05  2.35238965750E-05  2.38317036415E-05
  2.41435383226E-05  2.44594533191E-05  2.47795020215E-05  2.51037385187E-05
  2.54322176075E-05  2.57649948015E-05  2.61021263410E-05  2.64436692020E-05
  2.67896811060E-05  2.71402205299E-05  2.74953467156E-05  2.78551196804E-05
  2.82196002267E-05  2.85888499527E-05  2.89629312623E-05  2.93419073762E-05
  2.97258423423E-05  3.01148010465E-05  3.05088492237E-05  3.09080534691E-05
  3.13124812491E-05  3.17222009130E-05  3.21372817043E-05  3.25577937727E-05
  3.29838081857E-05  3.34153969409E-05  3.38526329776E-05  3.42955901899E-05
  3.47443434386E-05  3.51989685640E-05  3.56595423988E-05  3.61261427812E-05
  3.65988485677E-05  3.70777396468E-05  3.75628969521E-05  3.80544024763E-05
  3.85523392852E-05  3.90567915311E-05  3.95678444678E-05  4.00855844644E-05
  4.06100990202E-05  4.11414767793E-05  4.16798075459E-05  4.22251822993E-05
  4.27776932089E-05  4.33374336505E-05  4.39044982215E-05  4.44789827573E-05
  4.50609843469E-05  4.56506013502E-05  4.62479334138E-05  4.68530814882E-05