
print					"muSi $(v_si_mu:%2.2f) and muC $(v_c_mu:%2.2f)"
muSi -5.80 and muC -5.75

timestep			0.0001

# need dynamic dof bc I add particles ( 3 more per particle)
compute			mdtemp mdatoms temp
compute_modify	mdtemp dynamic/dof yes

fix					mynvt mdatoms nvt temp ${myTemp} ${myTemp} $(100.0*dt)
fix					mynvt mdatoms nvt temp 500 ${myTemp} $(100.0*dt)
fix					mynvt mdatoms nvt temp 500 500 $(100.0*dt)
fix					mynvt mdatoms nvt temp 500 500 0.010000000000000000208
fix_modify		mynvt temp mdtemp
WARNING: Temperature for fix modify is not for group all (../fix_nh.cpp:1428)

fix					freeze frozen_atoms setforce 0.0 0.0 0.0

fix					gcmcSi groupSi gcmc 5 30 128 1 12345 ${myTemp} ${si_mu} ${disp} full_energy
fix					gcmcSi groupSi gcmc 5 30 128 1 12345 500 ${si_mu} ${disp} full_energy
fix					gcmcSi groupSi gcmc 5 30 128 1 12345 500 -5.80422437334907 ${disp} full_energy
fix					gcmcSi groupSi gcmc 5 30 128 1 12345 500 -5.80422437334907 0.5 full_energy
fix					gcmcC groupC gcmc 5 30 128 2 98765 ${myTemp} ${c_mu} ${disp} full_energy
fix					gcmcC groupC gcmc 5 30 128 2 98765 500 ${c_mu} ${disp} full_energy
fix					gcmcC groupC gcmc 5 30 128 2 98765 500 -5.7493253367134 ${disp} full_energy
fix					gcmcC groupC gcmc 5 30 128 2 98765 500 -5.7493253367134 0.5 full_energy

# fix					swapFix mdatoms atom/swap 1 10 34567 ${myTemp} semi-grand yes types 1 2 mu ${si_mu} ${c_mu}

variable			taccSi equal f_gcmcSi[2]/(f_gcmcSi[1]+0.1)
variable			iaccSi equal f_gcmcSi[4]/(f_gcmcSi[3]+0.1)
variable			daccSi equal f_gcmcSi[6]/(f_gcmcSi[5]+0.1)

variable			taccC equal f_gcmcC[2]/(f_gcmcC[1]+0.1)
variable			iaccC equal f_gcmcC[4]/(f_gcmcC[3]+0.1)
variable			daccC equal f_gcmcC[6]/(f_gcmcC[5]+0.1)

thermo			10
thermo_style	custom step temp pe v_nSi v_nC f_gcmcSi[4] f_gcmcSi[6] f_gcmcC[4] f_gcmcC[6] v_taccSi v_taccC
thermo_modify temp mdtemp
WARNING: Temperature for thermo pressure is not for group all (../thermo.cpp:473)

# other useful parameters: f_widomSi[1] f_widomSi[2] f_widomC[1] f_widomC[2] f_swapFix[2]
# thermo_style	custom step temp pe v_nSi v_nC f_gcmcSi[4] f_gcmcSi[6] f_gcmcC[4] f_gcmcC[6] f_gcmcSi[3] f_gcmcSi[5]
# thermo_modify	lost warn

run					1000000
0 atoms in group FixGCMC:gcmc_exclusion_group:gcmcSi
0 atoms in group FixGCMC:gcmc_exclusion_group:gcmcC
Neighbor list info ...
  update every 1 steps, delay 0 steps, check yes
  max neighbors/atom: 2000, page size: 100000
  master list distance cutoff = 8
  ghost atom cutoff = 8
  binsize = 4, bins = 5 5 7
  1 neighbor lists, perpetual/occasional/extra = 1 0 0
  (1) pair tersoff, perpetual
      attributes: full, newton on
      pair build: full/bin/atomonly
      stencil: full/bin/3d
      bin: standard
Per MPI rank memory allocation (min/avg/max) = 4.138 | 4.138 | 4.138 Mbytes
Step Temp PotEng v_nSi v_nC f_gcmcSi[4] f_gcmcSi[6] f_gcmcC[4] f_gcmcC[6] v_taccSi v_taccC 
   10000          500   -2402.0692          128          128            0            0            0            0            0            0 
   10010    490.55209   -2401.7102          128          128            0            0            0            0 0.0038595137  0.018511662 
   10020    486.37639   -2401.5216          128          128            0            0            0            0 0.0019758941  0.013057265 
   10030    486.87006   -2401.5223          128          128            0            0            0            0 0.0013087292  0.008859638 
   10040    491.79169   -2401.6601          128          128            0            0            0            0 0.00098609605 0.0067043387 
   10050    498.62771    -2401.853          128          128            0            0            0            0 0.00078858134 0.0061628534 
   10060    504.07775   -2401.9358          128          128            0            0            0            0 0.0019606562  0.005187731 
   10070    508.77911   -2402.0564          128          128            0            0            0            0 0.0016815201  0.004424534 
   10080    513.06499   -2402.1519          128          128            0            0            0            0 0.0019587679 0.0039022487 
   10090     517.9886   -2402.1785          128          128            0            0            0            0 0.0026131266 0.0043269439 
   10100    522.86502   -2402.2928          128          128            0            0            0            0 0.0031309929 0.0038863628 
   10110    522.82919   -2402.3377          128          128            0            0            0            0 0.0031970445 0.0038895371 
   10120    516.27848    -2402.128          128          128            0            0            0            0 0.0032593462 0.0035643693 
   10130    506.82636   -2401.8897          128          128            0            0            0            0 0.0033191515 0.0038979341 
   10140    498.86398   -2401.5821          128          128            0            0            0            0  0.003644417 0.0041769931 
   10150    494.66264   -2401.4175          128          128            0            0            0            0 0.0034003819 0.0044154697 
   10160    495.07148   -2401.5688          128          128            0            0            0            0 0.0034329712 0.0043912078 
   10170    496.34576   -2401.5581          128          128            0            0            0            0 0.0032301977 0.0045828464 
   10180    496.53595   -2401.6069          128          128            0            0            0            0 0.0030507071 0.0047669606 
   10190    494.01431   -2401.5156          128          128            0            0            0            0 0.0030965504 0.0053223066 
   10200     490.9496   -2401.5086          128          128            0            0            0            0 0.0033326145 0.0052661349 
   10210    490.09726   -2401.4672          128          128            0            0            0            0 0.0033612818 0.0055616322 
   10220    490.82932   -2401.5787          128          128            0            0            0            0 0.0033849388  0.005667629 
   10230    492.28705   -2401.8288          128          128            0            0            0            0 0.0032372936 0.0060964251 
   10240    492.01834   -2401.8839          128          128            0            0            0            0 0.0031019902 0.0063290112 
   10250    492.45835   -2402.0193          128          128            0            0            0            0 0.0029728842 0.0060708893 
   10260    492.81842   -2402.1263          128          128            0            0            0            0 0.0028609718 0.0061422301 
   10270    491.60041   -2402.3256          128          128            0            0            0            0 0.0030451995 0.0062084001 
   10280     489.8207   -2402.5535          128          128            0            0            0            0 0.0029341493 0.0065313156 
   10290    487.49143   -2402.5684          128          128            0            0            0            0 0.0028309136 0.0065744455 
   10300     485.4529   -2402.8482          128          128            0            0            0            0 0.0029982662 0.0068660854 
   10310    483.66676   -2402.8528          128          128            0            0            0            0 0.0030279709 0.0070192151 
   10320    478.36994   -2402.7627          128          128            0            0            0            0 0.0030640634 0.0070387495 
   10330    470.87898   -2402.5092          128          128            0            0            0            0  0.002970497 0.0070645583 
   10340    464.69035   -2402.4064          128          128            0            0            0            0 0.0031127149 0.0072023871 
   10350    460.13664   -2402.8749          128          128            0            0            0            0  0.003356418 0.0072261565 
   10360    455.29472   -2402.8432          128          128            0            0            0            0 0.0033731951 0.0072400341 
   10370    451.42278   -2402.7292          128          128            0            0            0            0 0.0032852556 0.0071533016 
   10380     449.2533   -2402.5702          128          128            0            0            0            0 0.0031984812 0.0070681513 
   10390    447.57198   -2402.2056          128          128            0            0            0            0 0.0032141099 0.0070907112 
   10400     448.5576    -2402.182          128          128            0            0            0            0 0.0032333604 0.0072187375 
   10410    453.29343   -2402.2174          128          128            0            0            0            0 0.0031542425 0.0070428567 
   10420    460.35173   -2402.4241          128          128            0            0            0            0 0.0030797659 0.0072436177 
   10430     470.8479    -2402.272          128          128            0            0            0            0 0.0030120207  0.007435551 
   10440    482.61722   -2402.2811          128          128            0            0            0            0 0.0032090996 0.0073620067 
   10450    493.71579   -2402.4082          128          128            0            0            0            0 0.0031388688  0.007205424 
   10460    504.40996   -2402.5459          128          128            0            0            0            0 0.0030705982 0.0072290591 
   10470    514.37883   -2402.6478          128          128            0            0            0            0 0.0030052341 0.0070667853 
   10480    521.04523   -2402.6553          128          128            0            0            0            0 0.0030230981 0.0071701526 
   10490    521.64861   -2402.5396          128          128            0            0            0            0 0.0030409488 0.0072625119 
   10500    514.71224   -2402.2254          128          128            0            0            0            0 0.0029796677 0.0071930634 
   10510    505.80512   -2401.8244          128          128            0            0            0            0 0.0029212568 0.0070497544 
   10520    498.39819   -2401.3794          128          128            0            0            0            0  0.002938495 0.0071363647 
   10530    495.05016   -2401.2103          128          128            0            0            0            0 0.0029579017  0.007292764 
   10540    497.02075   -2401.2482          128          128            0            0            0            0 0.0029761689 0.0073714868 
   10550    499.60918   -2401.3498          128          128            0            0            0            0  0.003205562 0.0073826409 
   10560    501.22918   -2401.3248          128          128            0            0            0            0 0.0032151869  0.007455355 
   10570    501.99543   -2401.1711          128          128            0            0            0            0 0.0032969071 0.0074600817 
   10580    503.53811   -2401.2608          128          128            0            0            0            0 0.0032419071 0.0074641419 
   10590    505.48313   -2401.2523          128          128            0            0            0            0 0.0031846922 0.0073995283 
   10600    510.15737   -2401.4042          128          128            0            0            0            0 0.0031975777 0.0074665143 
   10610     517.3494   -2401.6047          128          128            0            0            0            0  0.003209634 0.0074097259 
   10620    524.06662   -2401.7425          128          128            0            0            0            0 0.0032219141 0.0072932581 
   10630    527.92494   -2401.7868          128          128            0            0            0            0 0.0031728059 0.0073574418 
   10640    529.05161   -2401.8362          128          128            0            0            0            0 0.0031829394 0.0073050021 
   10650    528.07956   -2401.8055          128          128            0            0            0            0 0.0031952541 0.0073669899 
   10660    529.36435   -2401.9035          128          128            0            0            0            0  0.003203018 0.0073099846 
   10670     529.4201   -2402.1174          128          128            0            0            0            0  0.003385853 0.0073174556 
   10680    528.73675   -2402.4076          128          128            0            0            0            0  0.003336574 0.0073756011 
   10690    526.37881   -2402.5532          128          128            0            0            0            0 0.0034019198 0.0073802401 
   10700    520.24585   -2402.4802          128          128            0            0            0            0 0.0033523111 0.0073377768 
   10710    511.11209   -2402.3759          128          128            0            0            0            0 0.0033582726 0.0074548733 
   10720    501.72062   -2402.2277          128          128            0            0            0            0 0.0034190632 0.0074077679 
   10730     492.7657   -2402.0763          128          128            0            0            0            0 0.0033723924 0.0075163521 
   10740    486.57288   -2401.8225          128          128            0            0            0            0 0.0033783605 0.0076275243 
   10750    478.17955   -2401.5346          128          128            0            0            0            0 0.0033845177 0.0077321861 
   10760    469.44195   -2401.3558          128          128            0            0            0            0 0.0033408545 0.0077332391 
   10770    465.14369   -2401.2183          128          128            0            0            0            0  0.003398238 0.0077820618 
   10780    465.30062   -2401.3713          128          128            0            0            0            0 0.0033548478 0.0078782953 
   10790    469.00687   -2401.5477          128          128            0            0            0            0 0.0033109147 0.0078266905 
   10800    474.70066   -2401.6863          128          128            0            0            0            0 0.0032698718 0.0078265139 
   10810    481.35236   -2401.7986          128          128            0            0            0            0 0.0032301455 0.0077727292 
   10820    488.08265    -2402.094          128          128            0            0            0            0 0.0032383882 0.0077280119 
   10830    494.81255    -2402.259          128          128            0            0            0            0 0.0032465852 0.0076847023 
   10840    500.36135   -2402.4819          128          128            0            0            0            0 0.0032074972 0.0076837267 
   10850    504.73277   -2402.7596          128          128            0            0            0            0 0.0032145334 0.0077827781 
   10860    507.40444   -2402.7781          128          128            0            0            0            0 0.0032688492 0.0076961035 
   10870    508.00474   -2402.5745          128          128            0            0            0            0 0.0033214986 0.0077879877 
   10880    507.90762   -2402.5486          128          128            0            0            0            0 0.0032850782 0.0077457277 
   10890    507.18895   -2402.3944          128          128            0            0            0            0 0.0032924918 0.0078774272 
   10900    504.40371   -2402.3115          128          128            0            0            0            0 0.0032547704 0.0078317345 
   10910    500.89752   -2402.0977          128          128            0            0            0            0 0.0032619286 0.0078699407 
   10920     497.2018   -2401.9187          128          128            0            0            0            0 0.0032700417 0.0079069433 
   10930    496.67307   -2401.8555          128          128            0            0            0            0 0.0032348728 0.0079484273 
   10940    498.56229   -2402.0682          128          128            0            0            0            0 0.0032413429 0.0079883775 
   10950    501.65665   -2402.2633          128          128            0            0            0            0 0.0032072237 0.0079449261 
   10960    502.72553   -2402.2345          128          128            0            0            0            0 0.0031735569 0.0079412992 
   10970    499.53823   -2401.9861          128          128            0            0            0            0 0.0032199508 0.0079781583 
   10980    494.73101   -2401.8514          128          128            0            0            0            0 0.0032286223  0.007933643 
   10990     491.1221   -2401.7874          128          128            0            0            0            0 0.0032750532 0.0078563544 
   11000    489.79794   -2401.7827          128          128            0            0            0            0 0.0032421748 0.0078158113 
   11010    491.63686   -2401.7108          128          128            0            0            0            0 0.0032100742 0.0078551873 
   11020    494.28336   -2401.6661          128          128            0            0            0            0 0.0032173923 0.0077773245 
   11030    496.14798   -2401.6719          128          128            0            0            0            0 0.0031865135 0.0077761965 
   11040    495.66282   -2401.6137          128          128            0            0            0            0 0.0031937958 0.0077417618 
   11050    495.66007   -2401.4599          128          128            0            0            0            0 0.0032001072 0.0077395655 
   11060    497.75501   -2401.3195          128          128            0            0            0            0 0.0032804892 0.0078182065 
   11070    503.39789   -2401.4016          128          128            0            0            0            0 0.0032489934  0.007785187 
   11080    508.86812    -2401.609          128          128            0            0            0            0 0.0032567279 0.0078234567 
   11090    512.90384   -2401.6102          128          128            0            0            0            0 0.0032271829   0.00792826 
   11100    516.92562   -2401.6805          128          128            0            0            0            0 0.0031977147 0.0078895882 
   11110    518.34361   -2401.5238          128          128            0            0            0            0 0.0032044397 0.0079236802 
   11120    518.22065   -2401.4276          128          128            0            0            0            0 0.0031762542 0.0078852026 
   11130    515.96227   -2401.2953          128          128            0            0            0            0 0.0031823889 0.0078476996 
   11140    513.25277   -2401.1416          128          128            0            0            0            0 0.0031538063 0.0078103417 
   11150    511.99265   -2400.9827          128          128            0            0            0            0 0.0031598153 0.0078785153 
   11160    513.57479   -2400.9021          128          128            0            0            0            0 0.0031667851 0.0079433974 
   11170    517.48659   -2400.9781          128          128            0            0            0            0 0.0031404412 0.0078752978 
   11180     521.7139   -2401.1809          128          128            0            0            0            0 0.0031804824 0.0079082381 
   11190    527.92919    -2401.368          128          128            0            0            0            0 0.0032200722 0.0078752765 
   11200    534.05454   -2401.5817          128          128            0            0            0            0  0.003192484 0.0078750109 
   11210    535.29241   -2401.7201          128          128            0            0            0            0 0.0031652622 0.0078739904 
   11220    531.49644   -2401.8346          128          128            0            0            0            0 0.0032354062 0.0078712305 
   11230    523.04879   -2401.5998          128          128            0            0            0            0 0.0032409658 0.0078060559 
   11240     510.5518   -2401.2729          128          128            0            0            0            0 0.0032461291 0.0077764643 
   11250    497.58081   -2401.0103          128          128            0            0            0            0 0.0032193436  0.007773366 
   11260    485.96062   -2400.7778          128          128            0            0            0            0 0.0032241964 0.0077741546 
   11270    477.48844   -2400.2988          128          128            0            0            0            0 0.0032310575 0.0078026749 
   11280      470.948   -2400.1963          128          128            0            0            0            0 0.0032358409 0.0077721544 
   11290    467.97868    -2400.155          128          128            0            0            0            0  0.003241334 0.0077138406 
   11300    469.90703   -2400.3864          128          128            0            0            0            0 0.0032171646 0.0077737016 
   11310    476.21124   -2400.6109          128          128            0            0            0            0 0.0031930672 0.0077164845 
   11320    485.70554   -2401.0219          128          128            0            0            0            0  0.003197906 0.0077144817 
   11330    495.96477   -2401.3676          128          128            0            0            0            0 0.0032326225 0.0076877881 
   11340    505.41951   -2401.6214          128          128            0            0            0            0 0.0032385026  0.007662813 
   11350    513.32469   -2401.8744          128          128            0            0            0            0 0.0032147729 0.0076076088 
   11360     519.3052   -2402.1971          128          128            0            0            0            0 0.0032494515 0.0076370595 
   11370    522.93377   -2402.2848          128          128            0            0            0            0 0.0033109653 0.0076112362 
   11380    526.38255   -2402.2471          128          128            0            0            0            0 0.0033153774 0.0076979255 
   11390    529.26241    -2402.522          128          128            0            0            0            0 0.0033477653 0.0076408306 
   11400    529.04026    -2402.763          128          128            0            0            0            0 0.0033231776 0.0076422642 
   11410    521.72549   -2402.6268          128          128            0            0            0            0 0.0032998633 0.0076156629 
   11420    506.94335   -2402.2201          128          128            0            0            0            0 0.0032764227  0.007587773 
   11430    489.93775   -2401.6701          128          128            0            0            0            0 0.0032535796 0.0075916095 
   11440      474.299   -2401.2991          128          128            0            0            0            0 0.0032588239 0.0075921118 
   11450    459.74553   -2400.7392          128          128            0            0            0            0 0.0032906182 0.0075674022 
   11460    453.76737   -2400.5502          128          128            0            0            0            0 0.0033751115 0.0076233937 
   11470    456.47583    -2400.791          128          128            0            0            0            0 0.0033778303  0.007625281 
   11480    464.01526   -2401.0489          128          128            0            0            0            0 0.0033815825 0.0075747414 
   11490    476.24356    -2401.445          128          128            0            0            0            0 0.0034117064  0.007524081 
   11500    488.27912   -2401.9154          128          128            0            0            0            0 0.0033896449 0.0074994615 
   11510     497.7125   -2402.0695          128          128            0            0            0            0 0.0033938615 0.0075280821 
   11520    500.55656   -2402.3828          128          128            0            0            0            0 0.0033719347 0.0075540112 
   11530    498.93652   -2402.2651          128          128            0            0            0            0 0.0033737071 0.0075549258 
   11540    497.26674     -2402.07          128          128            0            0            0            0 0.0033757116 0.0075805241 
   11550    495.84087   -2401.9965          128          128            0            0            0            0 0.0033800742 0.0076082671 
   11560    493.64876   -2401.9588          128          128            0            0            0            0 0.0033833654 0.0075604273 
   11570    489.90593   -2401.8933          128          128            0            0            0            0 0.0033608759 0.0075116952 
   11580    484.85892   -2401.8921          128          128            0            0            0            0 0.0033888997 0.0075393413 
   11590    479.60489   -2401.7309          128          128            0            0            0            0  0.003368154 0.0075162015 
   11600    476.45695   -2401.7333          128          128            0            0            0            0 0.0033478243 0.0074928052 
   11610    474.20973   -2401.6788          128          128            0            0            0            0 0.0033508077 0.0074940591 
   11620    472.52661   -2401.7542          128          128            0            0            0            0 0.0033548867  0.007523297 
   11630    472.95473   -2401.8148          128          128            0            0            0            0 0.0033337251 0.0075257848 
   11640    474.98877   -2401.8824          128          128            0            0            0            0 0.0033613766 0.0075287792 
   11650    480.30155   -2402.0718          128          128            0            0            0            0 0.0033882964 0.0075532088 
   11660    488.17867    -2402.274          128          128            0            0            0            0 0.0033680264 0.0075291844 
   11670    498.22971   -2402.0847          128          128            0            0            0            0 0.0033706208 0.0076723778 
   11680    508.37846   -2402.5824          128          128            0            0            0            0 0.0033738113 0.0076740989 
   11690    517.38416    -2402.847          128          128            0            0            0            0 0.0033768859 0.0076750924 
   11700    523.44353   -2403.0201          128          128            0            0            0            0 0.0033572403 0.0076528099 
   11710    525.00016    -2402.959          128          128            0            0            0            0 0.0033610679 0.0076528695 
   11720    521.25033   -2402.7945          128          128            0            0            0            0 0.0033417369 0.0077217279 
   11730     513.3346   -2402.5505          128          128            0            0            0            0 0.0033677568 0.0077227727 
   11740    503.07957   -2402.1664          128          128            0            0            0            0 0.0033488339 0.0077014178 
   11750    491.22838   -2401.7242          128          128            0            0            0            0 0.0033304946 0.0077013651 
   11760    478.39108   -2401.2631          128          128            0            0            0            0 0.0033111038 0.0077023357 
   11770    467.93974   -2400.5992          128          128            0            0            0            0 0.0032922284 0.0077462914 
   11780    463.22362   -2400.3731          128          128            0            0            0            0 0.0032958268 0.0078123119 
   11790    465.32173   -2400.3561          128          128            0            0            0            0  0.003320365  0.007812313 
   11800    472.07393   -2400.4773          128          128            0            0            0            0 0.0033016849 0.0078342939 
   11810    483.56957   -2400.5362          128          128            0            0            0            0 0.0032833558 0.0078751848 
   11820    496.22195   -2401.1897          128          128            0            0            0            0 0.0032649484 0.0078760212 
   11830    506.80767   -2401.3406          128          128            0            0            0            0 0.0032469544 0.0078780227 
   11840    516.33281   -2401.4995          128          128            0            0            0            0 0.0032715075 0.0078578221 
   11850    523.59865   -2401.5716          128          128            0            0            0            0 0.0032527125 0.0078361817 
   11860    528.63582   -2401.4723          128          128            0            0            0            0 0.0032983124 0.0078155939 
   11870    531.66204    -2401.601          128          128            0            0            0            0 0.0033221828 0.0078172066 
   11880    530.39377   -2401.4003          128          128            0            0            0            0 0.0033458647 0.0077760336 
   11890    524.90536   -2400.9832          128          128            0            0            0            0 0.0033486226 0.0077747829 
   11900    517.26564   -2400.6737          128          128            0            0            0            0 0.0033316812 0.0077730674 
   11910    511.09285   -2400.2328          128          128            0            0            0            0 0.0033135543 0.0078123247 
   11920    509.19306   -2399.9944          128          128            0            0            0            0 0.0033169791 0.0078308694 
   11930    514.88853   -2400.1033          128          128            0            0            0            0 0.0033195625 0.0078897294 
   11940    521.52066   -2400.1835          128          128            0            0            0            0 0.0033018517 0.0078708379 
   11950    526.27394   -2400.2353          128          128            0            0            0            0 0.0032857106 0.0078507204 
   11960    528.59604   -2400.2989          128          128            0            0            0            0  0.003289336 0.0078707136 
   11970    528.29683   -2400.3825          128          128            0            0            0            0 0.0032725693 0.0078891018 
   11980    529.30825   -2400.4276          128          128            0            0            0            0 0.0032957643 0.0079101003 
   11990    530.45843    -2400.499          128          128            0            0            0            0 0.0032797123 0.0079113149 
   12000    529.70125   -2400.5471          128          128            0            0            0            0 0.0032634971 0.0079100514 
   12010    526.05138   -2400.6806          128          128            0            0            0            0 0.0032676497 0.0079854092 
   12020    520.50376   -2400.8095          128          128            0            0            0            0 0.0032719535 0.0079655764 
   12030    514.65603   -2400.7768          128          128            0            0            0            0 0.0032559421 0.0079261353 
   12040     512.2611   -2400.6441          128          128            0            0            0            0 0.0032593837  0.007983483 
   12050    513.50645   -2401.0203          128          128            0            0            0            0 0.0032816223 0.0080206637 
   12060    515.27772   -2401.0076          128          128            0            0            0            0 0.0033604128 0.0080770097 
   12070     517.2078   -2401.3805          128          128            0            0            0            0 0.0033439066 0.0080956263 
   12080    516.98831   -2401.6256          128          128            0            0            0            0 0.0033281249  0.008112549 
   12090    516.10889   -2402.0117          128          128            0            0            0            0 0.0033118717 0.0081115705 
   12100    514.81204   -2401.9535          128          128            0            0            0            0 0.0033153226 0.0081089456 
   12110    516.06414   -2402.1851          128          128            0            0            0            0  0.003298856 0.0081643057 
   12120    516.62792   -2402.5445          128          128            0            0            0            0 0.0033208433 0.0082354304 
   12130    513.43526   -2402.8083          128          128            0            0            0            0 0.0033784342 0.0082325456 
   12140    508.51897   -2402.7591          128          128            0            0            0            0 0.0033810889 0.0082308873 
   12150    501.97784    -2402.685          128          128            0            0            0            0 0.0033655272 0.0081907651 
   12160    494.33148   -2402.4305          128          128            0            0            0            0 0.0033681557 0.0082070559 
   12170    489.24396   -2402.4403          128          128            0            0            0            0 0.0033890911 0.0082065685 
   12180    486.68205   -2402.4895          128          128            0            0            0            0  0.003409044 0.0081873289 
   12190    483.20797   -2402.4091          128          128            0            0            0            0 0.0034107082 0.0081517725 
   12200    479.70987    -2402.359          128          128            0            0            0            0 0.0033955495 0.0081313631 
   12210     475.7832   -2402.2529          128          128            0            0            0            0 0.0033806447 0.0080963662 
   12220    473.00534     -2402.52          128          128            0            0            0            0 0.0033651585 0.0080959431 
   12230    471.35085   -2402.3992          128          128            0            0            0            0 0.0033858402  0.008076909 
   12240    472.58317   -2402.4998          128          128            0            0            0            0 0.0033886404 0.0080764337 
   12250    476.21642   -2402.5632          128          128            0            0            0            0 0.0033728513 0.0080745632 
   12260    479.57359   -2402.3902          128          128            0            0            0            0 0.0033586037 0.0080909359 
   12270    482.06443   -2402.0981          128          128            0            0            0            0 0.0033436112 0.0081751684 
   12280    485.49611   -2402.2521          128          128            0            0            0            0 0.0033288091 0.0081905404 
   12290    487.44869   -2402.5425          128          128            0            0            0            0 0.0033660771 0.0081894504 
   12300     486.9626     -2402.52          128          128            0            0            0            0 0.0033512463 0.0082406263 
   12310    487.40034   -2402.3538          128          128            0            0            0            0 0.0033365457  0.008235717 
   12320    489.67359   -2402.2238          128          128            0            0            0            0 0.0033220855 0.0082336197 
   12330    491.09547   -2402.1003          128          128            0            0            0            0  0.003307639 0.0082658318 
   12340    489.27051   -2401.7142          128          128            0            0            0            0 0.0033597938 0.0083144356 
   12350      487.567   -2401.5122          128          128            0            0            0            0  0.003345144 0.0082804947 
   12360    486.10396    -2401.304          128          128            0            0            0            0 0.0033810604 0.0082458758 
   12370    486.78275   -2401.2268          128          128            0            0            0            0 0.0033665533 0.0082439146 
   12380    489.19141   -2401.0356          128          128            0            0            0            0 0.0033525007 0.0082270671 
   12390    492.49262   -2400.9702          128          128            0            0            0            0  0.003339166 0.0082425968 
   12400    497.83358   -2400.9711          128          128            0            0            0            0   0.00332572 0.0082731808 
   12410    502.33008   -2400.9216          128          128            0            0            0            0 0.0033124895 0.0082549518 
   12420    505.41209   -2400.8819          128          128            0            0            0            0 0.0033152692 0.0082687122 
   12430    508.03419   -2400.9095          128          128            0            0            0            0 0.0033335427 0.0082659087 
   12440    510.30405   -2401.0509          128          128            0            0            0            0  0.003319377 0.0082659031 
   12450    511.20565   -2401.1869          128          128            0            0            0            0  0.003321405 0.0082789233 
   12460     511.5073   -2401.1072          128          128            0            0            0            0 0.0033075672 0.0082455787 
   12470    513.32546   -2401.1261          128          128            0            0            0            0 0.0032942615 0.0082435674 
   12480    517.50229   -2400.8679          128          128            0            0            0            0 0.0032969408 0.0082587295 
   12490    522.22972    -2400.988          128          128            0            0            0            0 0.0032837317 0.0082560342 
   12500    528.34643   -2400.7251          128          128            0            0            0            0 0.0032859684 0.0082855988 
   12510    530.33774   -2400.9295          128          128            0            0            0            0 0.0032730622 0.0082833303 
   12520    530.22197   -2401.0227          128          128            0            0            0            0 0.0032601052 0.0082662411 
   12530    528.82844   -2400.9694          128          128            0            0            0            0 0.0032775683 0.0082630486 
   12540    526.31082   -2400.9384          128          128            0            0            0            0 0.0032640945 0.0082314512 
   12550    522.36093   -2400.8954          128          128            0            0            0            0 0.0032517282 0.0082135084 
   12560    517.46969   -2400.8841          128          128            0            0            0            0 0.0032389604 0.0081973333 
   12570    510.64551   -2400.6417          128          128            0            0            0            0  0.003226538 0.0081965845 
   12580    503.41891   -2400.5293          128          128            0            0            0            0 0.0032289312  0.008180225 
   12590     499.6273   -2400.4313          128          128            0            0            0            0 0.0032320376   0.00814721 
   12600    499.20286   -2400.7019          128          128            0            0            0            0  0.003234683 0.0081915441 
   12610    501.17485   -2400.7643          128          128            0            0            0            0 0.0032219826  0.008264574 
   12620    504.62862   -2401.0619          128          128            0            0            0            0 0.0032101003 0.0082483314 
   12630    510.27483   -2401.1774          128          128            0            0            0            0 0.0032124644 0.0082320885 
   12640    517.58339    -2401.498          128          128            0            0            0            0 0.0032148577 0.0082019179 
   12650    524.97558   -2401.8023          128          128            0            0            0            0 0.0032021911  0.008186933 
   12660    531.35478   -2402.0907          128          128            0            0            0            0 0.0031899052 0.0081545134 
   12670    535.91167   -2402.3328          128          128            0            0            0            0 0.0032072358 0.0081383847 
   12680    537.62385    -2402.811          128          128            0            0            0            0 0.0031949767 0.0081369334 
   12690     535.1052   -2402.8437          128          128            0            0            0            0 0.0031974839 0.0081344313 
   12700    530.01034   -2402.7967          128          128            0            0            0            0 0.0032144983 0.0081338282 
   12710     523.0878   -2402.6504          128          128            0            0            0            0 0.0032170994 0.0081319418 
   12720    514.48086    -2402.486          128          128            0            0            0            0 0.0032055843 0.0081020892 
   12730    503.36632   -2402.1478          128          128            0            0            0            0 0.0031941057  0.008100567 
   12740    491.05273   -2401.7391          128          128            0            0            0            0 0.0031825726 0.0080997479 
   12750    479.98818   -2401.5216          128          128            0            0            0            0 0.0031709422 0.0080977861 
   12760    470.69447   -2401.1147          128          128            0            0            0            0 0.0031602024 0.0080965253 
   12770    464.70779    -2400.874          128          128            0            0            0            0 0.0031627652 0.0080967555 
   12780    463.96027   -2400.7683          128          128            0            0            0            0  0.003151463 0.0081095377 
   12790    468.09435   -2400.9135          128          128            0            0            0            0 0.0031404173 0.0080950603 
   12800    475.85551   -2401.1297          128          128            0            0            0            0 0.0031432439 0.0081502318 
   12810    485.82886   -2401.4073          128          128            0            0            0            0 0.0031320863 0.0081218302 
   12820    494.18574   -2401.4899          128          128            0            0            0            0 0.0031347484 0.0081496435 
   12830    503.77869   -2401.9285          128          128            0            0            0            0 0.0031231819 0.0081483412 
   12840    514.66326   -2402.3516          128          128            0            0            0            0 0.0031395834 0.0081481675 
   12850    524.89256   -2402.5975          128          128            0            0            0            0 0.0031561715  0.008118939 
   12860    532.17511   -2402.8939          128          128            0            0            0            0 0.0031448218 0.0081439335 
   12870    536.57625   -2403.0832          128          128            0            0            0            0 0.0031342366 0.0081296281 
   12880    538.05822   -2403.1204          128          128            0            0            0            0 0.0031231287  0.008114541 
   12890    536.20371   -2403.1087          128          128            0            0            0            0  0.003126053 0.0081133876 
   12900    529.66031   -2402.8816          128          128            0            0            0            0 0.0031149245 0.0080995518 
   12910    518.66084   -2402.5384          128          128            0            0            0            0 0.0031173117 0.0080997612 
   12920    504.28992   -2402.3831          128          128            0            0            0            0  0.003133239 0.0080985619 
   12930    488.92253   -2401.8169          128          128            0            0            0            0 0.0031356286 0.0080705198 
   12940    475.70737   -2401.4591          128          128            0            0            0            0 0.0031250374 0.0080554085 
   12950    466.07913   -2401.2104          128          128            0            0            0            0  0.003114146 0.0080542664 
   12960    462.07538   -2401.0185          128          128            0            0            0            0 0.0031166183 0.0080658872 
   12970    464.21111   -2401.1307          128          128            0            0            0            0 0.0031062809 0.0080393983 
   12980    467.44252   -2401.2763          128          128            0            0            0            0 0.0030954839 0.0080519409 
   12990    471.59936   -2401.7347          128          128            0            0            0            0 0.0030852456 0.0080633482 
   13000    470.73371   -2401.7343          128          128            0            0            0            0 0.0030745941 0.0080896784 
   13010    469.60859   -2401.5495          128          128            0            0            0            0 0.0030646525 0.0080893877 
   13020     470.6375   -2401.3266          128          128            0            0            0            0 0.0030805034 0.0080882628 
   13030    474.44662   -2401.3021          128          128            0            0            0            0 0.0030702111 0.0080995015 
   13040    478.75376   -2401.4163          128          128            0            0            0            0 0.0030598693 0.0080988704 
   13050    483.43103    -2401.361          128          128            0            0            0            0 0.0030755391 0.0080989686 
   13060     485.4628   -2401.4604          128          128            0            0            0            0   0.00307857 0.0080870338 
   13070    487.10127   -2401.2814          128          128            0            0            0            0 0.0030684181 0.0080597899 
   13080    490.23078   -2401.1852          128          128            0            0            0            0 0.0030710231 0.0080848427 
   13090    493.88865   -2400.8962          128          128            0            0            0            0 0.0030609238 0.0080961842 
   13100    497.94134   -2400.5958          128          128            0            0            0            0 0.0030507752 0.0081068391 
   13110    503.10685   -2400.4228          128          128            0            0            0            0 0.0030411523 0.0081046732 
   13120    508.63281   -2400.3273          128          128            0            0            0            0 0.0030316659 0.0080899169 
   13130    514.28546   -2400.2426          128          128            0            0            0            0 0.0030720777 0.0081134538 
   13140    521.05771   -2400.2752          128          128            0            0            0            0 0.0030628215 0.0080869465 
   13150    526.27276   -2400.1483          128          128            0            0            0            0 0.0030533934   0.00809866 
   13160    530.81366   -2400.1566          128          128            0            0            0            0 0.0030431195 0.0080859106 
   13170    534.83967   -2400.0824          128          128            0            0            0            0 0.0030462575 0.0081221672 
   13180    537.72532   -2400.2503          128          128            0            0            0            0 0.0030490016 0.0080952691 
   13190    537.42829   -2400.2512          128          128            0            0            0            0 0.0030762028 0.0080958688 
   13200    533.37382   -2400.2077          128          128            0            0            0            0 0.0030786485 0.0080831873 
   13210    528.89521   -2400.2443          128          128            0            0            0            0 0.0030934452 0.0080946958 
   13220    527.37702   -2400.4351          128          128            0            0            0            0 0.0030842423   0.00811766 
   13230    530.84347   -2400.4727          128          128            0            0            0            0 0.0030988197 0.0081287949 
   13240     537.5141   -2400.6758          128          128            0            0            0            0 0.0030890603 0.0081143131 
   13250     545.1582   -2401.0416          128          128            0            0            0            0 0.0030798808   0.00808977 
   13260    551.85614   -2401.4262          128          128            0            0            0            0 0.0030703138 0.0080777281 
   13270    555.20305   -2401.8132          128          128            0            0            0            0 0.0030730195 0.0080650838 
   13280    554.82398   -2401.8995          128          128            0            0            0            0 0.0030750124 0.0080646025 
   13290    551.26186   -2401.7949          128          128            0            0            0            0 0.0030775775 0.0080656544 
   13300    543.86914   -2401.7824          128          128            0            0        