
print					"muSi $(v_si_mu:%2.2f) and muC $(v_c_mu:%2.2f)"
muSi -5.80 and muC -5.75

timestep			0.0001

# need dynamic dof bc I add particles ( 3 more per particle)
compute			mdtemp mdatoms temp
compute_modify	mdtemp dynamic/dof yes

fix					mynvt mdatoms nvt temp ${myTemp} ${myTemp} $(100.0*dt) drag 0.0
fix					mynvt mdatoms nvt temp 500 ${myTemp} $(100.0*dt) drag 0.0
fix					mynvt mdatoms nvt temp 500 500 $(100.0*dt) drag 0.0
fix					mynvt mdatoms nvt temp 500 500 0.010000000000000000208 drag 0.0
fix_modify		mynvt temp mdtemp
WARNING: Temperature for fix modify is not for group all (../fix_nh.cpp:1428)

fix					freeze frozen_atoms setforce 0.0 0.0 0.0

fix					gcmcSi groupSi gcmc 5 128 128 1 12345 ${myTemp} ${si_mu} ${disp} full_energy
fix					gcmcSi groupSi gcmc 5 128 128 1 12345 500 ${si_mu} ${disp} full_energy
fix					gcmcSi groupSi gcmc 5 128 128 1 12345 500 -5.80422437334907 ${disp} full_energy
fix					gcmcSi groupSi gcmc 5 128 128 1 12345 500 -5.80422437334907 0.5 full_energy
fix					gcmcC groupC gcmc 5 128 128 2 98765 ${myTemp} ${c_mu} ${disp} full_energy
fix					gcmcC groupC gcmc 5 128 128 2 98765 500 ${c_mu} ${disp} full_energy
fix					gcmcC groupC gcmc 5 128 128 2 98765 500 -5.7493253367134 ${disp} full_energy
fix					gcmcC groupC gcmc 5 128 128 2 98765 500 -5.7493253367134 0.5 full_energy

# fix					swapFix mdatoms atom/swap 1 10 34567 ${myTemp} semi-grand yes types 1 2 mu ${si_mu} ${c_mu}

variable			taccSi equal f_gcmcSi[2]/(f_gcmcSi[1]+0.1)
variable			iaccSi equal f_gcmcSi[4]/(f_gcmcSi[3]+0.1)
variable			daccSi equal f_gcmcSi[6]/(f_gcmcSi[5]+0.1)

variable			taccC equal f_gcmcC[2]/(f_gcmcC[1]+0.1)
variable			iaccC equal f_gcmcC[4]/(f_gcmcC[3]+0.1)
variable			daccC equal f_gcmcC[6]/(f_gcmcC[5]+0.1)

thermo			10
thermo_style	custom step temp pe v_nSi v_nC f_gcmcSi[4] f_gcmcSi[6] f_gcmcC[4] f_gcmcC[6] v_taccSi v_taccC
thermo_modify temp mdtemp
WARNING: Temperature for thermo pressure is not for group all (../thermo.cpp:473)

# other useful parameters: f_widomSi[1] f_widomSi[2] f_widomC[1] f_widomC[2] f_swapFix[2]
# thermo_style	custom step temp pe v_nSi v_nC f_gcmcSi[4] f_gcmcSi[6] f_gcmcC[4] f_gcmcC[6] f_gcmcSi[3] f_gcmcSi[5]
# thermo_modify	lost warn

run					1000000
0 atoms in group FixGCMC:gcmc_exclusion_group:gcmcSi
0 atoms in group FixGCMC:gcmc_exclusion_group:gcmcC
Neighbor list info ...
  update every 1 steps, delay 0 steps, check yes
  max neighbors/atom: 2000, page size: 100000
  master list distance cutoff = 8
  ghost atom cutoff = 8
  binsize = 4, bins = 5 5 7
  1 neighbor lists, perpetual/occasional/extra = 1 0 0
  (1) pair tersoff, perpetual
      attributes: full, newton on
      pair build: full/bin/atomonly
      stencil: full/bin/3d
      bin: standard
Per MPI rank memory allocation (min/avg/max) = 4.138 | 4.138 | 4.138 Mbytes
Step Temp PotEng v_nSi v_nC f_gcmcSi[4] f_gcmcSi[6] f_gcmcC[4] f_gcmcC[6] v_taccSi v_taccC 
   10000          500   -2402.0692          128          128            0            0            0            0            0            0 
   10010    493.20139   -2401.8799          128          128            0            0            0            0            0  0.023428348 
   10020    489.00978   -2401.7938          128          128            0            0            0            0 0.0060593819  0.013913735 
   10030    489.34257   -2401.6785          128          128            0            0            0            0 0.0064591138  0.010751243 
   10040    494.40876   -2401.8591          128          128            0            0            0            0 0.0058645294  0.011962915 
   10050    500.46719   -2402.0289          128          128            0            0            0            0 0.0046400124  0.011244077 
   10060    505.00185   -2402.1528          128          128            0            0            0            0  0.003838526 0.0093389367 
   10070     507.0258   -2402.2158          128          128            0            0            0            0 0.0038062096  0.010788712 
   10080    507.72185     -2402.25          128          128            0            0            0            0 0.0038294002 0.0093915279 
   10090    507.83901   -2401.9769          128          128            0            0            0            0 0.0038459895  0.010038846 
   10100    505.75658   -2401.8274          128          128            0            0            0            0 0.0034468232  0.010215709 
   10110    502.15458   -2401.5846          128          128            0            0            0            0 0.0031412516 0.0099818188 
   10120    496.38949   -2401.4315          128          128            0            0            0            0 0.0032019468  0.010433308 
   10130    489.53891   -2401.3015          128          128            0            0            0            0 0.0029462891  0.010225256 
   10140    485.36805   -2401.2487          128          128            0            0            0            0 0.0027389006  0.010343574 
   10150    487.95939   -2401.3416          128          128            0            0            0            0 0.0028024764  0.010161278 
   10160    497.51513   -2401.6315          128          128            0            0            0            0 0.0026296287 0.0097558596 
   10170    512.15755   -2401.8234          128          128            0            0            0            0  0.002700817 0.0096771964 
   10180    527.11808   -2402.2215          128          128            0            0            0            0 0.0025553119 0.0093476229 
   10190    539.55568   -2402.4267          128          128            0            0            0            0 0.0028333772 0.0090551748 
   10200    547.35655   -2402.6343          128          128            0            0            0            0 0.0030715479 0.0088129884 
   10210    549.86631   -2402.5971          128          128            0            0            0            0 0.0029271327 0.0087537949 
   10220    546.79261   -2402.4759          128          128            0            0            0            0 0.0031512053 0.0095964173 
   10230     540.1561   -2402.2254          128          128            0            0            0            0 0.0033584659 0.0093823033 
   10240    532.00872   -2401.8952          128          128            0            0            0            0 0.0032138323 0.0091501773 
   10250    523.15479   -2401.6417          128          128            0            0            0            0 0.0032401907 0.0087772919 
   10260    513.51298   -2401.2765          128          128            0            0            0            0 0.0032650154 0.0087519428 
   10270    504.14882   -2401.0138          128          128            0            0            0            0 0.0037131718 0.0088790556 
   10280      496.205   -2400.8025          128          128            0            0            0            0 0.0038498027 0.0089899004 
   10290    489.10881   -2400.7138          128          128            0            0            0            0 0.0038604385  0.009071093 
   10300    484.89255   -2400.8485          128          128            0            0            0            0 0.0038679233 0.0089959714 
   10310     484.0646     -2400.97          128          128            0            0            0            0 0.0037429352 0.0089713297 
   10320     484.5371    -2400.954          128          128            0            0            0            0 0.0038632879 0.0088093869 
   10330    484.70686   -2401.1233          128          128            0            0            0            0 0.0037518613 0.0087718258 
   10340    484.55444   -2401.2827          128          128            0            0            0            0 0.0036508425 0.0087204966 
   10350    485.77999   -2401.3463          128          128            0            0            0            0 0.0035543313 0.0089264793 
   10360    486.71677   -2401.4728          128          128            0            0            0            0 0.0034597961 0.0086719927 
   10370    488.28697   -2401.6525          128          128            0            0            0            0 0.0033669679  0.008856929 
   10380    488.54291   -2401.8619          128          128            0            0            0            0 0.0032729541 0.0088258536 
   10390    485.61735   -2401.8156          128          128            0            0            0            0 0.0032868199 0.0085981944 
   10400    479.32765   -2401.6674          128          128            0            0            0            0 0.0032029195 0.0084728431 
   10410    474.12926   -2401.2589          128          128            0            0            0            0 0.0034991158 0.0085640064 
   10420    472.82231    -2401.186          128          128            0            0            0            0 0.0034164043 0.0084548132 
   10430    480.06392   -2407.9554          128          129            0            0            1            0 0.0033342044  0.008343082 
   10440    494.78385   -2409.2391          128          129            0            0            1            0 0.0033482831 0.0084211646 
   10450    511.20577   -2410.2313          128          129            0            0            1            0 0.0034429037 0.0087589215 
   10460      523.917   -2410.7791          128          129            0            0            1            0 0.0033709475 0.0087331801 
   10470    530.84038   -2411.0665          128          129            0            0            1            0 0.0032986698 0.0086263385 
   10480    531.33456   -2411.0908          128          129            0            0            1            0 0.0032304698 0.0086038263 
   10490    526.48311   -2411.0155          128          129            0            0            1            0 0.0031652832  0.008527867 
   10500    518.17099    -2410.935          128          129            0            0            1            0  0.003102916  0.008441391 
   10510    506.48385   -2410.7595          128          129            0            0            1            0 0.0030503847  0.008345392 
   10520    493.02537   -2410.6923          128          129            0            0            1            0 0.0030640231 0.0084133983 
   10530    476.65008   -2410.4781          128          129            0            0            1            0 0.0031510835 0.0083173243 
   10540    461.39456   -2410.0059          128          129            0            0            1            0 0.0031636241 0.0082399115 
   10550    449.38355   -2409.4875          128          129            0            0            1            0 0.0031772705 0.0082228098 
   10560    442.99459   -2409.3289          128          129            0            0            1            0 0.0031913196 0.0080807518 
   10570    441.82122    -2409.557          128          129            0            0            1            0 0.0031369126  0.008216308 
   10580     442.4813    -2409.701          128          129            0            0            1            0 0.0031520143 0.0083349578 
   10590    444.56898   -2409.8845          128          129            0            0            1            0 0.0030963628 0.0083955286 
   10600    450.26637   -2410.1075          128          129            0            0            1            0 0.0030438246 0.0083213605 
   10610    459.97067   -2410.2163          128          129            0            0            1            0 0.0030571106 0.0083156891 
   10620    474.74974   -2410.7424          128          129            0            0            1            0  0.003200482 0.0083107202 
   10630    491.37945   -2411.1874          128          129            0            0            1            0 0.0031494896 0.0082915148 
   10640    506.38805   -2411.5942          128          129            0            0            1            0 0.0030985898 0.0082291483 
   10650    516.14513   -2411.7655          128          129            0            0            1            0  0.003051316 0.0081583194 
   10660    521.15652    -2411.817          128          129            0            0            1            0 0.0030013948 0.0080534846 
   10670    524.22553    -2411.851          128          129            0            0            1            0 0.0030756553 0.0081153193 
   10680     525.8863   -2411.7029          128          129            0            0            1            0   0.00314248 0.0081043332 
   10690    525.71833   -2411.5655          128          129            0            0            1            0 0.0032139655 0.0081627563 
   10700    523.24107   -2411.4545          128          129            0            0            1            0 0.0032220253 0.0081591139 
   10710     519.9881   -2411.2534          128          129            0            0            1            0   0.00317911 0.0081479402 
   10720    517.61954   -2410.9373          128          129            0            0            1            0 0.0031337631 0.0082500638 
   10730    516.32761   -2410.7611          128          129            0            0            1            0 0.0031443022 0.0081944824 
   10740     517.6801   -2410.7184          128          129            0            0            1            0 0.0031008404 0.0081919127 
   10750      520.983   -2410.7638          128          129            0            0            1            0 0.0031115329 0.0081372483 
   10760    522.59302   -2410.7785          128          129            0            0            1            0 0.0031731247 0.0081907676 
   10770    521.66996    -2410.503          128          129            0            0            1            0 0.0032824801 0.0081378967 
   10780    518.66433   -2410.5076          128          129            0            0            1            0 0.0032883101 0.0081789945 
   10790    514.02111   -2410.2123          128          129            0            0            1            0 0.0032938238 0.0081308471 
   10800    511.62171   -2409.8503          128          129            0            0            1            0 0.0034462506 0.0081228806 
   10810    511.21084   -2409.6739          128          129            0            0            1            0 0.0034047696 0.0080757867 
   10820    512.16545   -2409.5396          128          129            0            0            1            0 0.0033620449  0.008071796 
   10830     514.6709   -2409.4897          128          129            0            0            1            0 0.0033688781  0.008116998 
   10840    516.44061   -2409.4894          128          129            0            0            1            0 0.0033757069 0.0081213157 
   10850    518.04983   -2409.4383          128          129            0            0            1            0 0.0033360601 0.0081206657 
   10860    518.24504   -2409.2892          128          129            0            0            1            0 0.0033459787 0.0080762544 
   10870    519.28344   -2409.1926          128          129            0            0            1            0 0.0033082828 0.0079866078 
   10880    522.41937   -2409.2428          128          129            0            0            1            0 0.0032673823  0.008070953 
   10890    528.15007   -2409.1836          128          129            0            0            1            0 0.0032726654 0.0080253637 
   10900    534.02511   -2415.7683          128          130            0            0            2            0 0.0032349757 0.0080694056 
   10910    540.27996   -2415.7503          128          130            0            0            2            0 0.0032839882 0.0080217017 
   10920    539.94691   -2416.2359          128          130            0            0            2            0 0.0032494799 0.0080662026 
   10930    536.00891   -2416.0504          128          130            0            0            2            0 0.0032579957 0.0080566581 
   10940     531.5759   -2415.5497          128          130            0            0            2            0  0.003222994 0.0080627979 
   10950     528.3037   -2415.4714          128          130            0            0            2            0 0.0032294856 0.0080571521 
   10960     527.6479   -2415.7002          128          130            0            0            2            0 0.0032341396 0.0080595342 
   10970     529.4427   -2415.8249          128          130            0            0            2            0 0.0032407648  0.008016811 
   10980    531.85578   -2415.9855          128          130            0            0            2            0  0.003326456 0.0079759199 
   10990    533.97896   -2416.2658          128          130            0            0            2            0 0.0032929425 0.0079745766 
   11000    533.83549   -2416.4568          128          130            0            0            2            0 0.0032593386 0.0078897476 
   11010    531.76245   -2416.5737          128          130            0            0            2            0 0.0032659523 0.0079244535 
   11020    529.18181   -2416.8548          128          130            0            0            2            0 0.0032704469 0.0078431071 
   11030    524.32218   -2417.0616          128          130            0            0            2            0 0.0032391592 0.0078811807 
   11040     514.4449   -2417.3516          128          130            0            0            2            0 0.0032454089 0.0079595309 
   11050    504.48453   -2417.2386          128          130            0            0            2            0 0.0033238419 0.0079231307 
   11060     494.5758   -2417.1538          128          130            0            0            2            0 0.0033648975  0.007851532 
   11070    486.50201    -2417.095          128          130            0            0            2            0 0.0033325968 0.0078904584 
   11080    480.07211   -2416.9552          128          130            0            0            2            0  0.003297361 0.0079243623 
   11090    477.25659   -2416.9373          128          130            0            0            2            0 0.0032672659 0.0080319549 
   11100    479.20868   -2417.2018          128          130            0            0            2            0 0.0032747517 0.0080253673 
   11110    484.32936   -2417.5821          128          130            0            0            2            0 0.0033840239 0.0080904148 
   11120    489.19878    -2417.511          128          130            0            0            2            0 0.0033875924  0.008088207 
   11130    491.73993   -2417.9049          128          130            0            0            2            0 0.0033585683 0.0082228568 
   11140    491.31269   -2417.7607          128          130            0            0            2            0  0.003329811 0.0082553376 
   11150    489.31551   -2417.7088          128          130            0            0            2            0 0.0033034339 0.0081829991 
   11160    487.65415   -2417.9577          128          130            0            0            2            0 0.0032759376 0.0081775819 
   11170    487.08517   -2417.9058          128          130            0            0            2            0 0.0032830268 0.0081455881 
   11180    487.81485   -2418.0799          128          130            0            0            2            0 0.0032571039 0.0081414012 
   11190    489.31923   -2418.1374          128          130            0            0            2            0 0.0032617807  0.008072727 
   11200    491.47001   -2417.9668          128          130            0            0            2            0 0.0032349792  0.008035513 
   11210    494.13306   -2418.0249          128          130            0            0            2            0 0.0032069681 0.0079704252 
   11220     496.7124   -2418.2066          128          130            0            0            2            0 0.0031804491 0.0079686139 
   11230    499.70045   -2418.3284          128          130            0            0            2            0 0.0031551614 0.0079660709 
   11240    501.04952   -2418.2901          128          130            0            0            2            0 0.0031597949 0.0078991188 
   11250    501.68683   -2418.0723          128          130            0            0            2            0 0.0031660205 0.0079942066 
   11260    503.07504   -2418.0256          128          130            0            0            2            0 0.0031721491 0.0079666149 
   11270    505.10674   -2417.8753          128          130            0            0            2            0 0.0032105085 0.0079298715 
   11280    508.01733   -2418.0008          128          130            0            0            2            0 0.0032151317 0.0079005148 
   11290    510.75719   -2418.0556          128          130            0            0            2            0 0.0031909353 0.0078706419 
   11300    513.90674   -2417.9892          128          130            0            0            2            0 0.0031967877 0.0078744671 
   11310    515.79088    -2418.099          128          130            0            0            2            0 0.0031719587 0.0079062984 
   11320    516.94449    -2417.994          128          130            0            0            2            0 0.0031476976 0.0079091106 
   11330    516.56555   -2418.0428          128          130            0            0            2            0 0.0031230754 0.0079065143 
   11340    514.88116   -2418.0672          128          130            0            0            2            0 0.0031276154 0.0079313746 
   11350    512.43228   -2418.0699          128          130            0            0            2            0 0.0031043314 0.0079007526 
   11360    509.58208   -2417.8317          128          130            0            0            2            0 0.0031098342 0.0078985071 
   11370     505.9835   -2418.0213          128          130            0            0            2            0 0.0030864984 0.0079818963 
   11380    503.62293   -2418.1678          128          130            0            0            2            0  0.003092398 0.0079838391 
   11390    502.63686   -2418.1816          128          130            0            0            2            0 0.0030688454 0.0079530488 
   11400    502.54398    -2418.258          128          130            0            0            2            0 0.0030456487 0.0079874219 
   11410    501.61836    -2418.349          128          130            0            0            2            0 0.0030782677 0.0079322889 
   11420    498.65696   -2418.2957          128          130            0            0            2            0  0.003057094 0.0079628181 
   11430    494.03276   -2418.2598          128          130            0            0            2            0 0.0030638999 0.0079048997 
   11440    488.27751   -2418.2018          128          130            0            0            2            0  0.003070368 0.0079334571 
   11450    483.65421   -2418.2861          128          130            0            0            2            0  0.003049017 0.0079575381 
   11460    480.90727   -2418.3496          128          130            0            0            2            0  0.003027398 0.0079810604 
   11470    479.51721   -2418.4789          128          130            0            0            2            0 0.0030604357 0.0080070248 
   11480    478.58946   -2418.5791          128          130            0            0            2            0 0.0030394261 0.0080042194 
   11490    474.26813   -2418.5498          128          130            0            0            2            0 0.0030201963 0.0079488118 
   11500    467.94942   -2418.6247          128          130            0            0            2            0 0.0030271591 0.0079219621 
   11510    463.22409   -2418.3696          128          130            0            0            2            0 0.0030067768 0.0079467928 
   11520    461.67947   -2424.5003          128          131            0            0            3            0 0.0030125019  0.007945086 
   11530    461.10897   -2424.0673          128          131            0            0            3            0  0.002991803  0.007965556 
   11540    462.20643   -2424.0945          128          131            0            0            3            0 0.0029976246 0.0079621277 
   11550    463.54443   -2424.2453          128          131            0            0            3            0 0.0030028452 0.0080367771 
   11560    467.54943   -2425.0192          128          131            0            0            3            0 0.0029838054 0.0080580177 
   11570    473.60069    -2425.237          128          131            0            0            3            0  0.002964566 0.0080516301 
   11580    482.00219   -2425.4866          128          131            0            0            3            0 0.0029480335 0.0080233569 
   11590    491.32203   -2425.6167          128          131            0            0            3            0 0.0029785084 0.0079991927 
   11600    501.39336   -2425.7227          128          131            0            0            3            0 0.0029597211 0.0079735649 
   11610    512.22245   -2425.9811          128          131            0            0            3            0 0.0029412403 0.0079251053 
   11620    522.08798   -2426.2107          128          131            0            0            3            0 0.0029218688 0.0079065528 
   11630    530.77008   -2426.5096          128          131            0            0            3            0 0.0029516711 0.0079336268 
   11640    537.48031   -2426.5596          128          131            0            0            3            0  0.002934071 0.0079533594 
   11650    540.11314   -2426.6489          128          131            0            0            3            0  0.002940201 0.0079534474 
   11660     537.7047   -2426.6411          128          131            0            0            3            0 0.0029223292 0.0079258181 
   11670    529.64256   -2426.1156          128          131            0            0            3            0 0.0029501883 0.0079282982 
   11680    518.91961   -2425.7352          128          131            0            0            3            0   0.00293268 0.0079503673 
   11690    509.12795   -2425.5583          128          131            0            0            3            0 0.0029153783 0.0079708785 
   11700    501.29377   -2425.1993          128          131            0            0            3            0  0.002921434 0.0079410566 
   11710     493.0617    -2425.179          128          131            0            0            3            0 0.0029274868 0.0079640975 
   11720    486.63795   -2425.0987          128          131            0            0            3            0 0.0030009635 0.0079839684 
   11730    484.94622   -2425.1552          128          131            0            0            3            0  0.002984733 0.0079844202 
   11740    489.11263   -2425.2854          128          131            0            0            3            0 0.0029673524 0.0079363117 
   11750    497.10144   -2425.4378          128          131            0            0            3            0 0.0029723549 0.0078921305 
   11760    503.05133   -2425.5374          128          131            0            0            3            0 0.0029784164 0.0079361374 
   11770    505.09692   -2425.5692          128          131            0            0            3            0 0.0029834964 0.0080013969 
   11780    505.97221   -2425.5775          128          131            0            0            3            0   0.00296677 0.0079558516 
   11790    508.97358    -2425.747          128          131            0            0            3            0 0.0029725678 0.0079300755 
   11800    512.18089   -2425.9912          128          131            0            0            3            0 0.0029998856 0.0078863154 
   11810    516.43953   -2426.1237          128          131            0            0            3            0 0.0029844273 0.0078382936 
   11820    520.60585   -2426.4519          128          131            0            0            3            0 0.0030106269 0.0078384885 
   11830    523.04283   -2426.4694          128          131            0            0            3            0 0.0030145996 0.0078620551 
   11840     524.3605    -2426.636          128          131            0            0            3            0 0.0030825685 0.0078377064 
   11850    521.70598   -2426.5055          128          131            0            0            3            0 0.0030647095 0.0078986106 
   11860    516.23435   -2426.0266          128          131            0            0            3            0 0.0030694638 0.0079169913 
   11870    508.15094   -2425.7039          128          131            0            0            3            0 0.0031155171 0.0079403056 
   11880    497.75762   -2425.4059          128          131            0            0            3            0 0.0031196994 0.0079587558 
   11890    489.86492   -2425.2925          128          131            0            0            3            0 0.0031448415 0.0079194245 
   11900    485.04724   -2425.2324          128          131            0            0            3            0  0.003149471 0.0078762665 
   11910    484.69113    -2425.104          128          131            0            0            3            0 0.0031322395  0.007896228 
   11920    487.53611    -2425.187          128          131            0            0            3            0 0.0031563549 0.0078764036 
   11930    491.14883   -2425.2974          128          131            0            0            3            0 0.0031404696 0.0079148035 
   11940    497.09036   -2425.9925          128          131            0            0            3            0 0.0031436403  0.007917784 
   11950    503.58949   -2426.2571          128          131            0            0            3            0 0.0031272969 0.0078987833 
   11960    510.71133   -2426.6151          128          131            0            0            3            0 0.0031103213 0.0078554752 
   11970    518.32717   -2427.0041          128          131            0            0            3            0 0.0030947486 0.0078141889 
   11980    525.01022   -2427.4647          128          131            0            0            3            0 0.0030990662   0.00779414 
   11990    527.93124   -2427.3875          128          131            0            0            3            0 0.0031027357  0.007811718 
   12000     525.8993   -2427.4375          128          131            0            0            3            0 0.0030870729 0.0078149269 
   12010    519.05887   -2427.4632          128          131            0            0            3            0 0.0030706184 0.0077986585 
   12020    510.05536    -2427.178          128          131            0            0            3            0 0.0030934709 0.0077976708 
   12030    499.29939   -2427.0199          128          131            0            0            3            0 0.0030780937  0.007774299 
   12040    488.49946   -2426.6745          128          131            0            0            3            0 0.0030642678 0.0077547433 
   12050    478.13999   -2426.6507          128          131            0            0            3            0 0.0030678855 0.0078142719 
   12060    468.93111    -2426.405          128          131            0            0            3            0 0.0030722777 0.0077926362 
   12070    460.24331   -2426.3686          128          131            0            0            3            0 0.0030738608 0.0077547023 
   12080    452.85356   -2426.2491          128          131            0            0            3            0 0.0030783525 0.0077180055 
   12090    448.50319   -2426.1426          128          131            0            0            3            0 0.0030644595 0.0076848142 
   12100    448.41856   -2426.0551          128          131            0            0            3            0 0.0030495637 0.0077413928 
   12110    454.00635   -2426.1904          128          131            0            0            3            0 0.0030551154 0.0077066865 
   12120    462.40337   -2426.3866          128          131            0            0            3            0 0.0030591067 0.0077250544 
   12130    472.91047   -2432.0568          129          131            1            0            3            0 0.0030454946 0.0077079636 
   12140    485.12454   -2432.3418          129          131            1            0            3            0 0.0030313977 0.0076917315 
   12150    500.32875   -2432.7478          129          131            1            0            3            0 0.0030710256 0.0076536966 
   12160    515.19937   -2433.2528          129          131            1            0            3            0 0.0030917402 0.0076360603 
   12170     527.7674    -2433.543          129          131            1            0            3            0 0.0030780188 0.0076530934 
   12180    535.59391   -2433.2884          129          131            1            0            3            0 0.0030823999 0.0076549225 
   12190    538.47445   -2433.3554          129          131            1            0            3            0 0.0030690029 0.0076209038 
   12200    537.39017   -2433.2962          129          131            1            0            3            0 0.0030737651 0.0075877253 
   12210    534.97418    -2433.222          129          131            1            0            3            0 0.0030955342 0.0076243917 
   12220    530.76882   -2433.1023          129          131            1            0            3            0 0.0030803103 0.0076623493 
   12230    524.82405   -2432.7777          129          131            1            0            3            0 0.0030658763 0.0076653084 
   12240    518.68313   -2432.5645          129          131            1            0            3            0  0.003052159 0.0076497063 
   12250    509.70937   -2432.6737          129          131            1            0            3            0 0.0030739952 0.0076654192 
   12260    500.25916   -2432.4572          129          131            1            0            3            0 0.0030600965 0.0076689904 
   12270    492.79629     -2432.24          129          131            1            0            3            0 0.0030816588 0.0076684341 
   12280     488.3801   -2432.1518          129          131            1            0            3            0 0.0030677931 0.0076546681 
   12290    486.36625   -2432.2314          129          131            1            0            3            0 0.0030888241 0.0076729708 
   12300    484.69985     -2432.22          129          131            1            0            3            0 0.0031265791 0.0077081323 
   12310    484.96309   -2432.4033          129          131            1            0            3            0 0.0031296745 0.0077419442 
   12320    488.45181   -2432.5788          129          131            1            0            3            0 0.0031170868 0.0077095539 
   12330    494.30971   -2432.8616          129          131            1            0            3            0 0.0031034604 0.0077102556 
   12340    500.47997   -2433.1222          129          131            1            0            3            0 0.0030896959 0.0076911373 
   12350    504.68886    -2433.292          129          131            1            0            3            0 0.0030754934 0.0076752615 
   12360    507.12449   -2433.4459          129          131            1            0            3            0  0.003062883 0.0076419268 
   12370    509.30921   -2433.7174          129          131            1            0            3            0  0.003082518 0.0076251339 
   12380    510.97418    -2433.683          129          131            1            0            3            0 0.0030856589 0.0076107379 
   12390     512.3525   -2434.0311          129          131            1            0            3            0 0.0030896268 0.0075977017 
   12400    509.18038   -2434.2042          129          131            1            0            3            0 0.0030925114 0.0075640129 
   12410    499.45463   -2434.1418          129          131            1            0            3            0 0.0030791503 0.0075307438 
   12420     484.4421   -2433.7659          129          131            1            0            3            0 0.0030819065 0.0075315444 
   12430    469.40662   -2433.2486          129          131            1            0            3            0 0.0031177004 0.0075312474 
   12440    456.18565   -2433.1678          129          131            1            0            3            0 0.0031676246  0.007533488 
   12450    443.08276   -2433.2132          129          131            1            0            3            0 0.0031707228 0.0075199854 
   12460     433.4817   -2432.9445          129          131            1            0            3            0 0.0031735456 0.0075192631 
   12470    429.86468   -2432.9717          129          131            1            0            3            0 0.0031773446 0.0075343756 
   12480    433.41284   -2433.2341          129          131            1            0            3            0 0.0031641059 0.0075500724 
   12490    442.80697   -2433.6222          129          131            1            0            3            0  0.003150977 0.0075363748 
   12500    455.86152    -2434.092          129          131            1            0            3            0 0.0031381029 0.0075535906 
   12510    469.20698   -2434.4872          129          131            1            0            3            0 0.0031252369 0.0075843585 
   12520    480.44557   -2434.6574          129          131            1            0            3            0 0.0031440192 0.0076024272 
   12530    487.67545   -2434.8664          129          131            1            0            3            0 0.0031317115 0.0075730529 
   12540    489.07076   -2434.8227          129          131            1            0            3            0 0.0031191659 0.0075603481 
   12550    485.39526   -2434.5298          129          131            1            0            3            0 0.0031222823 0.0075289312 
   12560    481.18917   -2434.3468          129          131            1            0            3            0 0.0031390223 0.0075311903 
   12570    472.78545   -2433.9945          129          131            1            0            3            0 0.0031419418 0.0075463545 
   12580     462.9424   -2433.5443          129          131            1            0            3            0 0.0031296503 0.0075329167 
   12590    454.46279   -2433.1087          129          131            1            0            3            0 0.0031334286 0.0075000641 
   12600    450.46987   -2438.2937          129          132            1            0            4            0 0.0031358682 0.0074847712 
   12610    449.35408   -2438.3832          129          132            1            0            4            0 0.0031531619 0.0074990907 
   12620    448.85344   -2439.3896          129          132            1            0            4            0 0.0031413411 0.0075143018 
   12630    452.35078   -2439.4363          129          132            1            0            4            0 0.0031294238 0.0075147659 
   12640    462.50215   -2439.4429          129          132            1            0            4            0 0.0031316575 0.0075019865 
   12650    477.90913   -2439.7495          129          132            1            0            4            0  0.003120006 0.0074886381 
   12660     494.2695   -2439.7694          129          132            1            0            4            0 0.0031089853 0.0075058644 
   12670    508.24852   -2440.0948          129          132            1            0            4            0 0.0030975916 0.0075206562 
   12680    519.72247   -2440.3415          129          132            1            0            4            0 0.0031001418 0.0075364322 
   12690    528.04697   -2440.5567          129          132            1            0            4            0 0.0030887763 0.0075229355 
   12700    532.80471    -2440.451          129          132            1            0            4            0 0.0030777594 0.0075518539 
   12710    534.56026   -2440.4672          129          132            1            0            4            0 0.0030663375 0.0075406844 
   12720     532.7133   -2440.4103          129          132            1            0            4            0 0.0030682683 0.0075434178 
   12730    527.16091   -2440.2458          129          132            1            0            4            0 0.0030574038 0.0075308428 
   12740    521.50965   -2440.1229          129          132            1            0            4            0 0.0030466161 0.0075280055 
   12750    517.53003   -2440.0167          129          132            1            0            4            0 0.0030497232 0.0075138737 
   12760    515.76179   -2440.0055          129          132            1            0            4            0 0.0030665742 0.0074988929 
   12770    516.63884   -2440.0853          129          132            1            0            4            0  0.003055271  0.007472988 
   12780    520.33854   -2440.4873          129          132            1            0            4            0 0.0030858121 0.0074894158 
   12790    525.38247    -2440.946          129          132            1            0            4            0 0.0030881328 0.0074912031 
   12800    528.37448   -2441.1236          129          132            1            0            4            0  0.003091293 0.0075065124 
   12810    527.03384   -2440.8366          129          132            1            0            4            0 0.0030935765  0.007509063 
   12820    523.54128    -2440.837          129          132            1            0            4            0  0.003096738 0.0075242042 
   12830    518.06962   -2441.2206          129          132            1            0            4            0 0.0030856113  0.007539968 
   12840    513.06794   -2441.2115          129          132            1            0            4            0 0.0030747324 0.0075423812 
   12850    506.22019   -2441.2375          129          132            1            0            4            0 0.0030634293 0.0075314737 
   12860    498.20563   -2441.1816          129          132            1            0            4            0 0.0030526232 0.0075171425 
   12870     490.9043   -2441.1796          129          132            1            0            4            0 0.0030421397 0.0075037348 
   12880    488.06948   -2441.2443          129          132            1            0            4            0 0.0030311971 0.0074919482 
   12890    489.85207   -2441.2687          129          132            1            0            4            0 0.0030206978 0.0075069896 
   12900    492.04653   -2441.3813          129          132            1            0            4            0   0.00301011 0.0075086511 
   12910    492.73365    -2441.568          129          132            1            0            4            0 0.0030132088 0.0074821242 
   12920    490.31509   -2441.3663          129          132            1            0            4            0 0.0030031187 0.0074853607 
   12930    486.24934   -2441.4054          129          132            1            0            4            0 0.0030191438 0.0074726348 
   12940    478.70398   -2441.2579          129          132            1            0            4            0 0.0030093806 0.0074615848 
   12950     469.1578   -2440.9391          129          132            1            0            4            0 0.0029985757 0.0074616876 
   12960    461.22532   -2440.7279          129          132            1            0            4            0 0.0030144128 0.0074476978 
   12970     457.7965    -2440.439          129          132            1            0            4            0 0.0030436787  0.007476232 
   12980    458.58493   -2440.4213          129          132            1            0            4            0 0.0030335342 0.0074773613 
   12990    462.88418     -2440.59          129          132            1            0            4            0 0.0030489348 0.0074778964 
   13000    469.09853   -2440.7185          129          132            1            0            4            0 0.0030392739 0.0074522735 
   13010     476.4293    -2440.943          129          132            1            0            4            0 0.0030545528 0.0074424187 
   13020    484.54086   -2441.1563          129          132            1            0            4            0 0.0030448596 0.0074435488 
   13030    493.14971    -2441.585          129          132            1            0            4            0 0.0030470201 0.0074588248 
   13040    501.55318   -2441.4407          129          132            1            0            4            0 0.0030754271 0.0074478937 
   13050    509.96837   -2441.5756          129          132            1            0            4            0 0.0030913631 0.0074229722 
   13060    517.86145    -2441.747          129          132            1            0            4            0 0.0030942831 0.0074101424 
   13070    524.69445   -2441.8957          129          132            1            0            4            0 0.0030842311 0.0073990023 
   13080     529.2344   -2442.0203          129          132            1            0            4            0 0.0030866881 0.0073884027 
   13090     533.3269   -2442.0074          129          132            1            0            4            0 0.0030769965 0.0074273618 
   13100    533.08918   -2441.9305          129          132            1            0            4            0 0.0030669816 0.0074155254 
   13110    526.96043   -2441.5705          129          132            1            0            4            0 0.0030824486 0.0073897105 
   13120    515.96432    -2441.147          129          132            1            0            4            0 0.0030726705 0.0074044284 
   13130    506.00263   -2440.7495          129          132            1            0            4            0 0.0030626504  0.007442734 
   13140    498.12606   -2440.4053          129          132            1            0            4            0 0.0030653955 0.0074297996 
   13150    492.83751   -2440.1267          129          132            1            0            4            0 0.0030559899 0.0074183332 
   13160    490.94261   -2439.6831          129          132            1            0            4            0 0.0030587764 0.0074208657 
   13170    493.14405   -2439.5411          129          132            1            0            4            0 0.0030614332 0.0073967141 
   13180    499.13758   -2445.8749          129          133            1            0            5            0 0.0030640359 0.0073980222 
   13190    508.12893   -2445.8428          129          133            1            0            5            0 0.0030546019 0.0073891535 
   13200    521.49491   -2446.0016          129          133            1            0            5            0  0.003045115 0.0073803353 
   13210    536.81542   -2445.9938          129          133            1            0            5            0 0.0030473758 0.0073948548 
   13220    553.39345    -2446.109          129          133            1            0            5            0 0.0030383739 0.0074087479 
   13230    570.76184   -2446.4038          129          133            1            0            5            0 0.0030414832 0.0074227363 
   13240    587.68352   -2446.6147          129          133            1            0            5            0 0.0030443918 0.0074116904 
   13250    600.94081   -2446.8408          129          133            1            0            5            0 0.0030466641 0.0074008022 
   13260     606.3529   -2446.8908          129          133            1            0            5            0 0.0030369761 0.0074002022 
   13270     604.4444   -2446.8995          129          133            1            0            5            0 0.0030278167  0.007389949 
   13280    592.99324    -2446.776          129          133            1            0            5            0 0.0030419565 0.0074026304 
   13290    575.83218   -2446.4005          129          133            1            0            5            0 0.0030324448 0.0074035254 
   13300    555.30136   -2445.8988          129          133            1            0            5            0 0.0030226013 0.0073902915 
   13310    540.99502   -2445.7298          129          133            1            0            5            0 0.0030132454 0.0073900843 
   13320    530.38569   -2445.8627          129          133            1            0            5            0 0.0030274658 0.0074140238 
   13330    523.17146   -2445.8163          129          133            1            0            5            0  0.003029558 0.0074064423 
   13340    519.08199   -2445.9897          129          133            1            0            5            0 0.0030321301 0.0073854639 
   13350    518.33029   -2446.2078          129          133            1            0            5            0 0.0030350033 0.0073753284 
   13360    520.55635   -2446.4481          129          133            1            0            5            0 0.0030370532  0.007364567 
   13370    527.30847   -2446.7729          129          133            1            0            5            0 0.0030282758 0.0073554918 
   13380    537.59356   -2447.1782          129          133            1            0            5            0 0.0030191677 0.0073660268 
   13390    547.02526   -2447.6444          129          133            1            0            5            0 0.0030327271 0.0073446243 
   13400    554.15161    -2448.104          129          133            1            0            5            0 0.0030348633 0.0073924955 
   13410    554.17491    -2448.496          129          133            1            0            5            0 0.0030484302 0.0073946605 
   13420    546.51459   -2448.4806          129          133            1            0            5            0 0.0030390966 0.0073831018 
   13430    532.68927   -2448.2517          129          133            1            0            5            0 0.0030412972 0.0073729589 
   13440     515.8416   -2447.8785          129          133            1            0            5            0  0.003044068  0.007375746 
   13450    499.19287   -2447.5388          129          133            1            0            5            0 0.0030357852 0.0073651804 
   13460    484.06086   -2447.2643          129          133            1            0            5            0 0.0030267667 0.0073547604 
   13470    472.17208   -2446.9208          129          133            1            0            5            0  0.003029385 0.0073668476 
   13480    464.43381   -2446.7946          129          133            1            0            5            0 0.0030215489 0.0073572277 
   13490    461.76969   -2446.7968          129          133            1            0            5            0 0.0030240669 0.0073370366 
   13500    462.83491   -2446.9273          129          133            1            0            5            0 0.0030150498 0.0073380683 
   13510    465.70648    -2447.073          129          133            1            0            5            0 0.0030057208 0.0073286102 
   13520     468.0229   -2447.5955          129          133            1            0            5            0 0.0029968786 0.0073626499 
   13530    469.10109   -2447.7691          129          133            1            0            5            0 0.0029884823 0.0073632729 
   13540    472.22602   -2447.7083          129          133            1            0            5            0 0.0029803287 0.0073660879 
   13550    478.90875   -2447.8498          129          133            1            0            5            0 0.0029720572 0.0073567391 
   13560    489.39788   -2448.0464          129          133            1            0            5            0  0.002963218 0.0073589094 
   13570    501.78255   -2448.3079          129          133            1            0            5            0 0.0029663885 0.0073703266 
   13580     513.5767   -2448.5939          129          133            1            0            5            0 0.0029583523 0.0073700336 
   13590    522.64296   -2448.9047          129          133            1            0            5            0 0.0029935234 0.0073807888 
   13600     528.6499   -2449.0484          129          133            1            0            5            0 0.0029849106 0.0073707327 
   13610    532.87369     -2449.12          129          133            1            0            5            0 0.0029873489  0.007371159 
   13620    535.35747   -2449.1892          129          133            1            0            5            0 0.0029898057 0.0073503936 
   13630    535.23727   -2449.1946          129          133            1            0            5            0 0.0029818492 0.0073512713 
   13640     531.2834   -2449.0935          129          133            1            0            5            0  0.002973713 0.0073526176 
   13650    521.79862   -2448.6977          129          133            1            0            5            0  0.002975871 0.0073641092 
   13660    510.40061   -2448.5427          129          133            1            0            5            0 0.0029778589 0.0073554452 
   13670    500.07621    -2448.394          129          133            1            0            5            0 0.0029694569 0.0073547334 
   13680    491.75677   -2448.3816          129          133            1            0            5            0 0.0029722036 0.0073878998 
   13690     483.4877   -2448.2446          129          133            1            0            5            0 0.0029842246 0.0074097519 
   13700    477.53745   -2448.1177          129          133            1            0            5            0  0.002976125 0.0074101363 
   13710     475.4696   -2448.0382          129          133            1            0            5            0 0.0029684105 0.0074312582 
   13720    477.00093   -2448.1668          129          133            1            0            5            0 0.0029706345 0.0074332972 
   13730    480.40554   -2448.3134          129          133            1            0            5            0 0.0029628521 0.0074446286 
   13740    486.35891   -2448.5416          129          133            1            0            5            0 0.0029649258 0.0074343154 
   13750    492.72897   -2449.0204          129          133            1            0            5            0 0.0029776644 0.0074153458 
   13760    498.95115   -2449.2713          129          133            1            0            5            0 0.0029799313 0.0074053225 
   13770    503.76967   -2449.4783          129          133            1            0            5            0 0.0029727586 0.0073950478 
   13780     505.8543   -2449.6266          129          133            1            0            5            0 0.0029648902  0.007396763 
   13790     505.3209   -2449.8259          129          133            1            0            5            0  0.002957154 0.0073972498 
   13800    502.08589    -2449.827          129          133            1            0            5            0 0.0029494581 0.0074083131 
   13810    495.29177   -2449.7584          129          133            1            0            5            0 0.0029515608  0.007408918 
   13820    483.93181   -2449.8024          129          133            1            0            5            0 0.0029747069 0.0074007366 
   13830    469.16165   -2449.3795          129          133            1            0            5            0 0.0029671757 0.0074123089 
   13840    453.60844   -2448.8639          129          133            1            0            5            0 0.0029588757 0.0074031815 
   13850    440.96218   -2448.5478          129          133            1            0            5            0 0.0029614378 0.0073829853 
   13860    433.09344   -2448.3832          129          133            1            0            5            0 0.0029641657 0.0073940631 
   13870    429.53989   -2448.6128          129          133            1            0            5            0 0.0029763366 0.0074053074 
   13880    430.85196   -2448.4198          129          133            1            0            5            0 0.0029987375 0.0073874198 
   13890    436.95827   -2448.8297          129          133            1            0            5            0 0.0030111442 0.0074076974 
   13900    444.72549   -2448.9933          129          133            1            0            5            0 0.0030031792  0.007399538 
   13910    454.93393   -2449.1724          129          133            1            0            5            0 0.0029959099   0.00738202 
   13920    469.28363   -2449.3043          129          133            1            0            5            0  0.002998572 0.0073826032 
   13930     484.8764    -2449.572          129          133            1            0            5            0 0.0029910535 0.0073929733 
   13940    498.57584   -2449.6201          129          133            1            0            5            0 0.0029830733 0.0074044631 
   13950    508.87905   -2449.5181          129          133            1            0            5            0 0.0029955381 0.0074163363 
   13960    514.78379   -2449.6542          129          133            1            0            5            0 0.0030275982 0.0074079846 
   13970    516.68959   -2449.4439          129          133            1            0            5            0  0.003019846 0.0074093681 
   13980    515.49437   -2449.2297          129          133            1            0            5            0 0.0030220286 0.0073913312 
   13990    512.68755   -2448.9642          129          133            1            0            5            0 0.0030437966 0.0074002942 
   14000    508.99935   -2448.6013          129          133            1            0            5            0 0.0030460861 0.0073922821 
   14010    505.20895   -2448.4119          129          133            1            0            5            0 0.0030387459 0.0073825824 
   14020    502.08322   -2448.2832          129          133            1            0            5            0 0.0030409485 0.0073735781 
   14030    500.76071   -2448.1143          129          133            1            0            5            0 0.0030336855 0.0073745955 
   14040    500.79926    -2447.986          129          133            1            0            5            0 0.0030259918 0.0073768915 
   14050    500.43371   -2447.9389          129          133            1            0            5            0 0.0030184528 0.0073684647 
   14060    501.69288   -2447.8983          129          133            1            0            5            0 0.0030206542 0.0073501045 
   14070    505.30244   -2447.8256          129          133            1            0            5            0 0.0030229025 0.0073426302 
   14080    510.23077   -2447.9753          129          133            1            0            5            0 0.0030251688 0.0073273686 
   14090    514.26722   -2448.1082          129          133            1            0            5            0 0.0030270796 0.0073287654 
   14100    513.99616   -2447.8515          129          133            1            0            5            0 0.0030294682 0.0073492895 
   14110    511.48677   -2447.7418          129          133            1            0            5            0  0.003040257 0.0073426537 
   14120    511.55406   -2447.6171          129          133            1            0            5            0 0.0030423451  0.007353283 
   14130    515.39464   -2447.8542          129          133            1            0            5            0 0.0030443946 0.0073544654 
   14140    521.90915   -2448.0696          129          133            1            0            5            0 0.0030371745 0.0073365493 
   14150    527.17081   -2448.2532          129          133            1            0            5            0 0.0030392834 0.0073189961 
   14160    529.57228   -2448.3638          129          133            1            0            5            0 0.0030415526 0.0073024188 
   14170    530.26186   -2448.5441          129          133            1            0            5            0 0.0030620289 0.0072858481 
   14180    529.03358   -2448.5595          129          133            1            0            5            0 0.0030640356 0.0072684684 
   14190    528.44052   -2448.6663          129          133            1            0            5            0 0.0030566565 0.0072891127 
   14200    527.88185   -2448.9179          129          133            1            0            5            0 0.0030491439 0.0072895458 
   14210    526.17502   -2449.2566          129          133            1            0            5            0 0.0030511946 0.0072893675 
   14220    521.69694   -2449.3067          129          133            1            0            5            0 0.0030444312 0.0072729564 
   14230    512.89984     -2449.23          129          133            1            0            5            0 0.0030468471 0.0072564848 
   14240    501.35426   -2449.0865          129          133            1            0            5            0 0.0030483312  0.007248776 
   14250    489.95759   -2448.9488          129          133            1            0            5            0 0.0030413431 0.0072317025 
   14260    481.64989   -2448.7227          129          133            1            0            5            0  0.003043111 0.0072243524 
   14270    475.79307   -2448.8871          129          133            1            0            5            0 0.0030547926 0.0072174325 
   14280    473.44589   -2448.9948          129          133            1            0            5            0 0.0030741858 0.0072014045 
   14290    471.13986   -2449.0667          129          133            1            0            5            0 0.0030668714 0.0072198151 
   14300    466.67102   -2449.0804          129          133            1            0            5            0 0.0030778923   0.00722021 
   14310    463.04791   -2448.9201          129          133            1            0            5            0 0.0030798852  0.007220996 
   14320     460.3882   -2448.8386          129          133            1            0            5            0 0.0030912429 0.0072042654 
   14330    458.25515   -2448.7799          129          133            1            0            5            0  0.003083982 0.0072056714 
   14340    457.70277   -2448.7793          129          133            1            0            5            0 0.0030768653 0.0071974785 
   14350    460.04899   -2448.8159          129          133            1            0            5            0 0.0030701649 0.0071977291 
   14360    464.28185   -2448.7071          129          133            1            0            5            0 0.0030986465 0.0071812738 
   14370    470.66405   -2448.6014          129          133            1            0            5            0 0.0030912972 0.0071740311 
   14380    480.31931   -2448.8766          129          133            1            0            5            0 0.0030845294 0.0071754898 
   14390    492.11525   -2449.2073          129          133            1            0            5            0  0.003078009 0.0071670164 
   14400    502.31194   -2449.5413          129          133            1            0            5            0 0.0030794453 0.0071514808 
   14410    509.25228   -2449.5325          129          133            1            0            5            0 0.0030814172 0.0071531709 
   14420    513.34462   -2449.5626          129          133            1            0            5            0 0.0030738668 0.0071631274 
   14430    514.35585    -2449.512          129          133            1            0            5            0 0.0030665413 0.0071655426 
   14440    511.96588   -2449.4633          129          133            1            0            5            0  0.003068662 0.0071505877 
   14450    506.07833    -2449.251          129          133            1            0            5            0 0.0030705592  0.007153145 
   14460    499.81516   -2449.1296          129          133            1            0            5            0 0.0030905012 0.0071545622 
   14470    494.34942   -2448.8676          129          133            1            0            5            0 0.0030836557 0.0071572253 
   14480     490.5066   -2448.8303          129          133            1            0            5            0 0.0031027612 0.0071412296 
   14490    487.33537   -2454.2545          130          133            2            0            5            0 0.0031048085 0.0071245605 
   14500    487.30167   -2454.1823          130          133            2            0            5            0 0.0031146977 0.0071174006 
   14510    489.57548   -2454.3729          130          133            2            0            5            0 0.0031082078 0.0071375854 
   14520    494.98642   -2454.6712          130          133            2            0            5            0 0.0031097225 0.0071292549 
   14530    504.27309   -2455.3238          130          133            2            0            5            0 0.0031201489 0.0071396444 
   14540    513.03871   -2455.4321          130          133            2            0            5            0  0.003122057 0.0071405131 
   14550    518.74646   -2455.5611          130          133            2            0            5            0 0.0031233439 0.0071325389 
   14560    520.40812   -2455.5719          130          133            2            0            5            0 0.0031252901 0.0071162722 
   14570    518.59847   -2455.5988          130          133            2            0            5            0 0.0031178823 0.0071274496 
   14580    513.13183   -2455.5335          130          133            2            0            5            0 0.0031112215 0.0071197405 
   14590    506.73637   -2455.4825          130          133            2            0            5            0 0.0031045103 0.0071216759 
   14600     498.8009   -2455.2471          130          133            2            0            5            0 0.0030975405 0.0071049708 
   14610    488.43488   -2454.8654          130          133            2            0            5            0 0.0030903676 0.0071066877 
   14620     479.0735   -2454.6997          130          133            2            0            5            0 0.0030836682 0.0071091792 
   14630     472.5501    -2454.465          130          133            2            0            5            0 0.0030851493 0.0071198062 
   14640    469.10997   -2454.2109          130          133            2            0            5            0 0.0031032236 0.0071209405 
   14650    470.39654   -2454.2467          130          133            2            0            5            0 0.0031130782 0.0071139604 
   14660    476.03074   -2454.4241          130          133            2            0            5            0  0.003114899 0.0071237323 
   14670    486.72752   -2454.7359          130          133            2            0            5            0 0.0031080134 0.0071174318 
   14680    500.63222   -2455.1863          130          133            2            0            5            0 0.0031183109 0.0071105036 
   14690    513.33216   -2455.5353          130          133            2            0            5            0 0.0031123741 0.0071127729 
   14700    521.80366   -2455.5901          130          133            2            0            5            0  0.003114413  0.007114441 
   14710    525.37891   -2455.5033          130          133            2            0            5            0 0.0031164437 0.0070993182 
   14720     525.3115   -2455.3214          130          133            2            0            5            0 0.0031099311  0.007085375 
   14730    523.28669   -2455.0938          130          133            2            0            5            0 0.0031033693 0.0070782352 
   14740    519.88977   -2454.8566          130          133            2            0            5            0 0.0030970381 0.0070713597 
   14750     516.3656   -2454.6268          130          133            2            0            5            0 0.0030992639 0.0070907326 
   14760    514.03605   -2454.3282          130          133            2            0            5            0   0.00309337 0.0070841493 
   14770    512.43137   -2454.1078          130          133            2            0            5            0 0.0031031593 0.0070947523 
   14780    512.77294   -2453.9556          130          133            2            0            5            0 0.0030965011 0.0070887096 
   14790    513.58984   -2453.8087          130          133            2            0            5            0 0.0030977804 0.0070737706 
   14800    515.42131   -2453.7105          130          133            2            0            5            0 0.0030913627 0.0070593548 
   14810    520.47402   -2453.7194          130          133            2            0            5            0 0.0031093247 0.0070446538 
   14820    529.96801   -2453.7887          130          133            2            0            5            0 0.0031187771 0.0070380175 
   14830    543.30659   -2454.1235          130          133            2            0            5            0 0.0031283148 0.0070388253 
   14840    556.57238   -2454.4713          130          133            2            0            5            0 0.0031299382 0.0070314337 
   14850    565.66869   -2454.7232          130          133            2            0            5            0 0.0031235959 0.0070162365 
   14860    566.96728   -2454.8134          130          133            2            0            5            0 0.0031172543 0.0070169735 
   14870    561.06528   -2454.6493          130          133            2            0            5            0 0.0031190396 0.0070024356 
   14880     552.6031   -2454.5103          130          133            2            0            5            0 0.0031123858 0.0069959715 
   14890     544.7216   -2454.3461          130          133            2            0            5            0 0.0031140249 0.0069900931 
   14900    536.59346     -2454.25          130          133            2            0            5            0 0.0031082964 0.0069761446 
   14910    531.36463   -2453.8844          130          133            2            0            5            0 0.0031023187 0.0070093216 
   14920     526.8088   -2454.1508          130          133            2            0            5            0 0.0031198882 0.0070276359 
   14930    522.24812   -2454.2396          130          133            2            0            5            0 0.0031134453 0.0070125282 
   14940    516.59712   -2454.3296          130          133            2            0            5            0 0.0031072733 0.0070062882 
   14950    509.56829   -2454.3084          130          133            2            0            5            0 0.0031014179 0.0070002394 
   14960    502.21363   -2454.2741          130          133            2            0            5            0 0.0031033972 0.0069858336 
   14970    494.49624   -2454.1614          130          133            2            0            5            0 0.0031051504 0.0069955878 
   14980    491.63109   -2454.3615          130          133            2            0            5            0 0.0030990421 0.0069985492 
   14990    491.25854   -2454.4082          130          133            2            0            5            0 0.0031006278 0.0070008961 
   15000    493.23956   -2454.6046          130          133            2            0            5            0 0.0030946729 0.0070024669 
   15010    496.13073   -2454.7893          130          133            2            0            5            0 0.0030963332 0.0069889606 
   15020    498.23623   -2454.6871          130          133            2            0            5            0 0.0031052991 0.0070064632 
   15030     500.7609   -2454.8218          130          133            2            0            5            0 0.0030994666 0.0069931103 
   15040    501.97063   -2455.0117          130          133            2            0            5            0 0.0031012991 0.0069796999 
   15050     502.9077   -2455.0612          130          133            2            0            5            0  0.003102814 0.0069665027 
   15060    504.40361   -2455.0862          130          133            2            0            5            0 0.0031047046 0.0069916495 
   15070    505.34873   -2455.1667          130          133            2            0            5            0 0.0030987275 0.0069938653 
   15080    506.43459   -2455.2569          130          133            2            0            5            0 0.0031004286 0.0069950488 
   15090    509.45214    -2455.201          130          133            2            0            5            0 0.0031019811 0.0069890229 
   15100    511.63169   -2455.2949          130          133            2            0            5            0 0.0031034564 0.0069984752 
   15110    509.06196   -2455.4449          130          133            2            0            5            0 0.0030977402 0.0070068713 
   15120    503.43976   -2455.4618          130          133            2            0            5            0  0.003091176 0.0070153398 
   15130    497.62305   -2455.6589          130          133            2            0            5            0 0.0030930625 0.0070323113 
   15140    492.56685   -2455.4763          130          133            2            0            5            0 0.0030870479 0.0070340994 
   15150    490.56745   -2455.5391          130          133            2            0            5            0 0.0030961833 0.0070274816 
   15160    493.66744   -2455.6804          130          133            2            0            5            0 0.0030907217 0.0070136808 
   15170     498.9504   -2455.9468          130          133            2            0            5            0 0.0030919436 0.0070070775 
   15180    502.59984   -2456.1975          130          133            2            0            5            0 0.0030862784 0.0070081054 
   15190    504.14885   -2456.2013          130          133            2            0            5            0 0.0030803568 0.0070023313 
   15200    504.66045   -2456.3002          130          133            2            0            5            0 0.0030819845 0.0070041024 
   15210    503.63142   -2456.2622          130          133            2            0            5            0 0.0030913032  0.006990009 
   15220    500.56925   -2456.3253          130          133            2            0            5            0 0.0030929733 0.0069840932 
   15230    495.76593   -2456.1894          130          133            2            0            5            0 0.0030867388 0.0069778869 
   15240    490.61825   -2456.0783          130          133            2            0            5            0 0.0030806896 0.0069639286 
   15250    485.65424   -2456.0763          130          133            2            0            5            0 0.0030825981  0.006965547 
   15260    483.07643   -2455.9946          130          133            2            0            5            0 0.0030769663 0.0069603964 
   15270    480.14265   -2455.9902          130          133            2            0            5            0 0.0030714458 0.0069629974 
   15280    476.67173   -2455.9558          130          133            2            0            5            0 0.0030726131 0.0069649699 
   15290    474.99386   -2455.9385          130          133            2            0            5            0 0.0030737758 0.0069661623 
   15300    474.99473   -2456.0282          130          133            2            0            5            0 0.0030820463 0.0069667331 
   15310    477.46187   -2462.7645          130          134            2            0            6            0 0.0030760194 0.0069526227 
   15320    481.32047   -2462.7404          130          134            2            0            6            0 0.0030704425 0.0069549567 
   15330    486.45061   -2462.9245          130          134            2            0            6            0 0.0030869806 0.0069503006 
   15340    494.66668   -2463.1227          130          134            2            0            6            0 0.0030883059 0.0069448463 
   15350    508.09326   -2463.4985          130          134            2            0            6            0 0.0030896261   0.00695363 
   15360    522.30231   -2463.8916          130          134            2            0            6            0 0.0030908514 0.0069547779 
   15370    534.85411   -2464.3137          130          134            2            0            6            0 0.0030997624 0.0069422641 
   15380    543.00392   -2464.5602          130          134            2            0            6            0 0.0030942495 0.0069289891 
   15390    546.46775   -2464.5898          130          134            2            0            6            0 0.0030955932 0.0069377871 
   15400    541.92877   -2464.5059          130          134            2            0            6            0 0.0030969987 0.0069391075 
   15410    533.10962   -2464.3481          130          134            2            0            6            0 0.0030908324 0.0069413765 
   15420    522.82571   -2464.0487          130          134            2            0            6            0 0.0030851774  0.006942986 
   15430    513.80098   -2463.7784          130          134            2            0            6            0 0.0030938666 0.0069305811 
   15440    505.95503   -2463.5818          130          134            2            0            6            0 0.0030877412 0.0069318058 
   15450    499.26475   -2463.3901          130          134            2            0            6            0 0.0030890818  0.006918374 
   15460    492.80626   -2463.2182          130          134            2            0            6            0 0.0030906816 0.0069196667 
   15470    489.29938   -2463.3982          130          134            2            0            6            0 0.0030923196 0.0069214494 
   15480    487.44472    -2463.497          130          134            2            0            6            0  0.003086111 0.0069085072 
   15490    486.65785   -2463.8415          130          134            2            0            6            0 0.0030947233 0.0069249463 
[...]
   15980    536.10077   -2463.1311          130          134            2            0            6            0 0.0030494327  0.006922856 
   15990    523.07932   -2462.8593          130          134            2            0            6            0 0.0030509951 0.0069179017 
   16000    508.75477   -2462.6046          130          134            2            0            6            0 0.0030521767  0.006919666 
   16010    494.18458   -2462.3667          130          134            2            0            6            0 0.0030535517  0.006913923 
   16020    481.38667   -2462.0699          130          134            2            0            6            0 0.0030613411 0.0069020603 
   16030     472.2248   -2462.0106          130          134            2            0            6            0 0.0030630518 0.0069037069 
   16040    465.84139   -2461.9038          130          134            2            0            6            0  0.003057728 0.0069047667 
   16050    463.44328   -2461.6069          130          134            2            0            6            0 0.0030587898 0.0069000259 
   16060    464.66817   -2461.7139          130          134            2            0            6            0  0.003053727 0.0068879993 
   16070    469.86251   -2461.9516          130          134            2            0            6            0 0.0030484661 0.0068954806 
   16080     476.5942   -2462.1212          130          134            2            0            6            0 0.0030498702 0.0069031139 
   16090    484.59998   -2462.2301          130          134            2            0            6            0 0.0030510164 0.0068983635 
   16100    493.47935   -2462.5092          130          134            2            0            6            0 0.0030523727 0.0068872599 
   16110    501.87257   -2462.6335          130          134            2            0            6            0 0.0030535497 0.0068821979 
   16120    510.82038   -2462.9928          130          134            2            0            6            0 0.0030609957 0.0068780319 
   16130    518.62503   -2463.2778          130          134            2            0            6            0 0.0030560855 0.0068864238 
   16140     524.3741   -2463.4363          130          134            2            0            6            0 0.0030703568 0.0068818695 
   16150    528.70869   -2463.6652          130          134            2            0            6            0 0.0030717481 0.0068837793 
   16160    531.51722   -2463.6805          130          134            2            0            6            0 0.0030861256 0.0068799428 
   16170    531.96068   -2463.7812          130          134            2            0            6            0 0.0030872929 0.0068821553 
   16180    529.11567   -2463.7867          130          134            2            0            6            0 0.0030950969 0.0068702585 
   16190    523.49719   -2463.6739          130          134            2            0            6            0 0.0030903533 0.0068654616 
   16200    516.53192   -2463.5599          130          134            2            0            6            0 0.0030852372 0.0068611999 
   16210    509.68985   -2463.4054          130          134            2            0            6            0 0.0030927751 0.0068627778 
   16220    503.51697   -2463.3038          130          134            2            0            6            0 0.0030881736 0.0068578001 
   16230    497.50005   -2463.2974          130          134            2            0            6            0 0.0031017699 0.0068520639 
   16240    490.55835    -2463.086          130          134            2            0            6            0 0.0030966292 0.0068544652 
   16250     485.2545    -2463.045          130          134            2            0            6            0 0.0030917939  0.006850383 
   16260     481.5845   -2462.9241          130          134            2            0            6            0 0.0030933387 0.0068586891 
   16270    478.67414   -2463.0631          130          134            2            0            6            0 0.0030945909 0.0068596567 
   16280    476.61816   -2463.0739          130          134            2            0            6            0 0.0030896857 0.0068549877 
   16290    475.95666   -2463.0507          130          134            2            0            6            0 0.0030848532 0.0068566835 
   16300    478.47001   -2463.0862          130          134            2            0            6            0  0.003098228 0.0068520765 
   16310    483.75339   -2463.1607          130          134            2            0            6            0 0.0030935503  0.006847569 
   16320    490.36889   -2463.2016          130          134            2            0            6            0 0.0030886967 0.0068487595 
   16330    497.13434   -2463.3168          130          134            2            0            6            0 0.0030960874 0.0068387653 
   16340    503.09202   -2463.4885          130          134            2            0            6            0 0.0030968657  0.006833751 
   16350    507.54033   -2463.5539          130          134            2            0            6            0 0.0031045993 0.0068425131 
   16360    509.39108   -2463.6573          130          134            2            0            6            0 0.0030998349  0.006838055 
   16370    509.99581   -2463.6583          130          134            2            0            6            0 0.0031072755 0.0068276753 
   16380     509.0706   -2463.7316          130          134            2            0            6            0 0.0031086169 0.0068353161 
   16390    506.29911    -2463.977          130          134            2            0            6            0 0.0031038682 0.0068549333 
   16400    502.47906   -2463.9157          130          134            2            0            6            0 0.0030991152 0.0068565585 
   16410    497.34816   -2463.7564          130          134            2            0            6            0 0.0031003124 0.0068519879 
   16420    491.30238   -2463.5549          130          134            2            0            6            0 0.0030954482 0.0068778349 
   16430    485.41044   -2463.2506          130          134            2            0            6            0 0.0030968348 0.0068858406 
   16440    480.23625   -2462.9646          130          134            2            0            6            0 0.0031039941 0.0068758355 
   16450    475.27069   -2462.6824          130          134            2            0            6            0 0.0031051575 0.0068713462 
   16460     472.0134   -2462.8053          130          134            2            0            6            0 0.0031005773 0.0068663712 
   16470    473.27752   -2462.5413          130          134            2            0            6            0  0.003101929 0.0068682524 
   16480    477.46368   -2462.6884          130          134            2            0            6            0 0.0031030904  0.006870128 
   16490    484.19199   -2462.5845          130          134            2            0            6            0 0.0031040064 0.0068778654 
   16500    492.94156   -2462.4746          130          134            2            0            6            0 0.0031055139 0.0068909809 
   16510    505.43984   -2462.6295          130          134            2            0            6            0 0.0031065715 0.0069158331 
   16520    517.43674   -2462.8658          130          134            2            0            6            0 0.0031017536 0.0069170453 
   16530    526.80077   -2462.9266          130          134            2            0            6            0 0.0030970244 0.0069122587 
   16540    532.41809   -2462.9529          130          134            2            0            6            0 0.0030924199 0.0069189614 
   16550    533.92796   -2462.9075          130          134            2            0            6            0 0.0030940245  0.006914187 
   16560    530.86219   -2462.8264          130          134            2            0            6            0 0.0030953859 0.0069092213 
   16570     524.6134   -2462.6379          130          134            2            0            6            0 0.0030964866 0.0069112577 
   16580     517.1265   -2462.3754          130          134            2            0            6            0 0.0030918005 0.0069126302 
   16590    509.02167   -2462.0959          130          134            2            0            6            0 0.0030932138   0.00691367 
   16600    502.61812   -2461.9601          130          134            2            0            6            0   0.00308851 0.0069209652 
   16610    498.84115    -2462.044          130          134            2            0            6            0 0.0030836753 0.0069338314 
   16620    496.62329   -2462.1359          130          134            2            0            6            0 0.0030847677 0.0069290851 
   16630    493.28873   -2462.3244          130          134            2            0            6            0 0.0030800803 0.0069370195 
   16640    489.21142   -2462.2142          130          134            2            0            6            0 0.0030754072 0.0069430487 
   16650    486.79219   -2462.1767          130          134            2            0            6            0 0.0030820678  0.006939127 
   16660    486.66842   -2462.2535          130          134            2            0            6            0 0.0030771009 0.0069405225 
   16670    486.69747   -2462.3217          130          134            2            0            6            0 0.0030723112 0.0069365342 
   16680    485.64903   -2462.2761          130          134            2            0            6            0 0.0030679829 0.0069377263 
   16690    485.49954   -2462.5573          130          134            2            0            6            0 0.0030632927 0.0069384276 
   16700     486.2532   -2462.5936          130          134            2            0            6            0 0.0030589187 0.0069338932 
   16710    487.62819   -2462.6921          130          134            2            0            6            0 0.0030543801 0.0069286853 
   16720    487.80591   -2462.7489          130          134            2            0            6            0 0.0030500668 0.0069296801 
   16730    487.88356   -2462.8535          130          134            2            0            6            0 0.0030570949  0.006924938 
   16740    487.78837   -2462.8221          130          134            2            0            6            0 0.0030525788 0.0069316202 
   16750    488.55425   -2462.7267          130          134            2            0            6            0  0.003047637  0.006939408 
   16760    491.05467   -2463.0568          130          134            2            0            6            0 0.0030544433 0.0069406215 
   16770    494.26935   -2463.2624          130          134            2            0            6            0 0.0030613693 0.0069474508 
   16780    498.25431   -2463.5146          130          134            2            0            6            0   0.00306268  0.006937026 
   16790    501.87936    -2463.733          130          134            2            0            6            0 0.0030584876 0.0069267921 
   16800    504.26225   -2463.8895          130          134            2            0            6            0  0.003065781 0.0069217053 
   16810    506.83818   -2464.2091          130          134            2            0            6            0 0.0030668698  0.006929119 
   16820    506.06606   -2464.2644          130          134            2            0            6            0 0.0030623051  0.006924441 
   16830    501.74956   -2464.2884          130          134            2            0            6            0 0.0030635877 0.0069204113 
   16840    494.79923   -2464.0838          130          134            2            0            6            0 0.0030649886 0.0069225097 
   16850    487.35288   -2464.0199          130          134            2            0            6            0 0.0030600815  0.006911912 
   16860    480.50749   -2464.1178          130          134            2            0            6            0 0.0030613442 0.0069074836 
   16870    473.01048   -2464.0273          130          134            2            0            6            0 0.0030571327 0.0069033828 
   16880    467.77619   -2463.8669          130          134            2            0            6            0 0.0030587074 0.0068987443 
   16890    465.18944   -2463.9003          130          134            2            0            6            0 0.0030544247 0.0068892623 
   16900    464.93631     -2463.95          130          134            2            0            6            0 0.0030555507 0.0068903292 
   16910     466.6705   -2464.0797          130          134            2            0            6            0 0.0030511472 0.0068862762 
   16920    468.14134   -2464.1213          130          134            2            0            6            0 0.0030465338 0.0068982246 
   16930    469.67108   -2464.2294          130          134            2            0            6            0 0.0030477007 0.0068941725 
   16940     469.7114   -2464.2532          130          134            2            0            6            0 0.0030491205 0.0068847262 
   16950     469.3385   -2464.2383          130          134            2            0            6            0 0.0030453142 0.0068739511 
   16960    470.16758   -2464.2437          130          134            2            0            6            0 0.0030409222 0.0068638655 
   16970    472.99496   -2464.4134          130          134            2            0            6            0 0.0030366107 0.0068597694 
   16980    477.74443   -2464.6539          130          134            2            0            6            0 0.0030320579 0.0068610596 
   16990    482.52063   -2464.6491          130          134            2            0            6            0 0.0030330671 0.0068568256 
   17000     488.2129   -2464.7638          130          134            2            0            6            0 0.0030342419 0.0068531782 
   17010    493.76451   -2464.9028          130          134            2            0            6            0 0.0030298978  0.006854396 
   17020    498.29594   -2464.9351          130          134            2            0            6            0  0.003031057  0.006844997 
   17030    501.22734     -2464.82          130          134            2            0            6            0 0.0030264954 0.0068460327 
   17040    502.37912    -2464.801          130          134            2            0            6            0 0.0030220477 0.0068417358 
   17050    501.95125   -2464.5867          130          134            2            0            6            0  0.003017613 0.0068382103 
   17060     501.0848   -2464.4057          130          134            2            0            6            0  0.003013208 0.0068280533 
   17070    499.91864   -2464.2824          130          134            2            0            6            0 0.0030145651  0.006818417 
   17080    499.17212   -2464.0999          130          134            2            0            6            0 0.0030157859 0.0068248597 
   17090    498.62681   -2463.9241          130          134            2            0            6            0 0.0030222235 0.0068257276 
   17100    498.79233   -2463.8794          130          134            2            0            6            0 0.0030232643 0.0068165499 
   17110    498.04257   -2463.5209          130          134            2            0            6            0 0.0030189488 0.0068121878 
   17120    497.82301   -2463.2991          130          134            2            0            6            0 0.0030201729 0.0068184153 
   17130    498.34029   -2463.1072          130          134            2            0            6            0 0.0030214759 0.0068203729 
   17140    502.42184   -2463.0699          130          134            2            0            6            0 0.0030172796 0.0068111791 
   17150    507.26751   -2463.1295          130          134            2            0            6            0 0.0030185338 0.0068123954 
   17160    511.63226   -2463.1209          130          134            2            0            6            0 0.0030144023  0.006803498 
   17170    514.25141   -2462.6807          130          134            2            0            6            0 0.0030266032 0.0068156729 
   17180    515.97303   -2462.5636          130          134            2            0            6            0 0.0030280033 0.0068287063 
   17190    515.63149   -2462.4559          130          134            2            0            6            0 0.0030237284 0.0068198604 
   17200    513.70025   -2462.2782          130          134            2            0            6            0 0.0030306779 0.0068214641 
   17210     510.8935   -2462.1419          130          134            2            0            6            0 0.0030263617 0.0068174133 
   17220    507.96513   -2461.8131          130          134            2            0            6            0 0.0030273142 0.0068239555 
   17230    506.46543   -2461.5129          130          134            2            0            6            0 0.0030226088 0.0068362615 
   17240      508.414    -2461.563          130          134            2            0            6            0  0.003023905 0.0068373167 
   17250    510.52527   -2461.4214          130          134            2            0            6            0 0.0030251003  0.006843323 
   17260    511.31151   -2467.9444          130          135            2            0            7            0 0.0030317947 0.0068451398 
   17270    512.17451   -2468.1053          130          135            2            0            7            0 0.0030276754 0.0068515601 
   17280    513.51602   -2468.6955          130          135            2            0            7            0 0.0030395283 0.0068533612 
   17290    518.47182   -2469.5484          130          135            2            0            7            0 0.0030403875 0.0068660782 
   17300    527.20093   -2469.9103          130          135            2            0            7            0 0.0030411633 0.0068616115 
   17310    536.63347   -2470.3204          130          135            2            0            7            0 0.0030424545  0.006863429 
   17320    539.19461   -2470.4245          130          135            2            0            7            0 0.0030437261 0.0068697438 
   17330    539.22644   -2470.3805          130          135            2            0            7            0 0.0030449297 0.0068607576 
   17340    537.64358   -2470.4427          130          135            2            0            7            0 0.0030408808 0.0068630081 
   17350    535.62158   -2470.3124          130          135            2            0            7            0 0.0030365856 0.0068641563 
   17360    532.04395   -2470.4689          130          135            2            0            7            0 0.0030483601 0.0068649362 
   17370     528.1783   -2470.4691          130          135            2            0            7            0 0.0030444838 0.0068665161 
   17380    523.52541   -2470.6215          130          135            2            0            7            0 0.0030403129 0.0068785894 
   17390    516.12332    -2470.499          130          135            2            0            7            0 0.0030361055    0.00687