512
Atoms. Timestep: 0
2 0 0 0
2 2.1798 0 2.1798
2 0 2.1798 2.1798
2 2.1798 2.1798 0
1 1.0899 1.0899 1.0899
1 3.2697 1.0899 3.2697
1 1.0899 3.2697 3.2697
1 3.2697 3.2697 1.0899
2 4.3596 0 0
2 6.5394 0 2.1798
2 4.3596 2.1798 2.1798
2 6.5394 2.1798 0
1 5.4495 1.0899 1.0899
1 7.6293 1.0899 3.2697
1 5.4495 3.2697 3.2697
1 7.6293 3.2697 1.0899
2 8.7192 0 0
2 10.899 0 2.1798
2 8.7192 2.1798 2.1798
2 10.899 2.1798 0
1 9.8091 1.0899 1.0899
1 11.9889 1.0899 3.2697
1 9.8091 3.2697 3.2697
1 11.9889 3.2697 1.0899
2 13.0788 0 0
2 15.2586 0 2.1798
2 13.0788 2.1798 2.1798
2 15.2586 2.1798 0
1 14.1687 1.0899 1.0899
1 16.3485 1.0899 3.2697
1 14.1687 3.2697 3.2697
1 16.3485 3.2697 1.0899
2 0 4.3596 0
2 2.1798 4.3596 2.1798
2 0 6.5394 2.1798
2 2.1798 6.5394 0
1 1.0899 5.4495 1.0899
1 3.2697 5.4495 3.2697
1 1.0899 7.6293 3.2697
1 3.2697 7.6293 1.0899
2 4.3596 4.3596 0
2 6.5394 4.3596 2.1798
2 4.3596 6.5394 2.1798
2 6.5394 6.5394 0
1 5.4495 5.4495 1.0899
1 7.6293 5.4495 3.2697
1 5.4495 7.6293 3.2697
1 7.6293 7.6293 1.0899
2 8.7192 4.3596 0
2 10.899 4.3596 2.1798
2 8.7192 6.5394 2.1798
2 10.899 6.5394 0
1 9.8091 5.4495 1.0899
1 11.9889 5.4495 3.2697
1 9.8091 7.6293 3.2697
1 11.9889 7.6293 1.0899
2 13.0788 4.3596 0
2 15.2586 4.3596 2.1798
2 13.0788 6.5394 2.1798
2 15.2586 6.5394 0
1 14.1687 5.4495 1.0899
1 16.3485 5.4495 3.2697
1 14.1687 7.6293 3.2697
1 16.3485 7.6293 1.0899
2 0 8.7192 0
2 2.1798 8.7192 2.1798
2 0 10.899 2.1798
2 2.1798 10.899 0
1 1.0899 9.8091 1.0899
1 3.2697 9.8091 3.2697
1 1.0899 11.9889 3.2697
1 3.2697 11.9889 1.0899
2 4.3596 8.7192 0
2 6.5394 8.7192 2.1798
2 4.3596 10.899 2.1798
2 6.5394 10.899 0
1 5.4495 9.8091 1.0899
1 7.6293 9.8091 3.2697
1 5.4495 11.9889 3.2697
1 7.6293 11.9889 1.0899
2 8.7192 8.7192 0
2 10.899 8.7192 2.1798
2 8.7192 10.899 2.1798
2 10.899 10.899 0
1 9.8091 9.8091 1.0899
1 11.9889 9.8091 3.2697
1 9.8091 11.9889 3.2697
1 11.9889 11.9889 1.0899
2 13.0788 8.7192 0
2 15.2586 8.7192 2.1798
2 13.0788 10.899 2.1798
2 15.2586 10.899 0
1 14.1687 9.8091 1.0899
1 16.3485 9.8091 3.2697
1 14.1687 11.9889 3.2697
1 16.3485 11.9889 1.0899
2 0 13.0788 0
2 2.1798 13.0788 2.1798
2 0 15.2586 2.1798
2 2.1798 15.2586 0
1 1.0899 14.1687 1.0899
1 3.2697 14.1687 3.2697
1 1.0899 16.3485 3.2697
1 3.2697 16.3485 1.0899
2 4.3596 13.0788 0
2 6.5394 13.0788 2.1798
2 4.3596 15.2586 2.1798
2 6.5394 15.2586 0
1 5.4495 14.1687 1.0899
1 7.6293 14.1687 3.2697
1 5.4495 16.3485 3.2697
1 7.6293 16.3485 1.0899
2 8.7192 13.0788 0
2 10.899 13.0788 2.1798
2 8.7192 15.2586 2.1798
2 10.899 15.2586 0
1 9.8091 14.1687 1.0899
1 11.9889 14.1687 3.2697
1 9.8091 16.3485 3.2697
1 11.9889 16.3485 1.0899
2 13.0788 13.0788 0
2 15.2586 13.0788 2.1798
2 13.0788 15.2586 2.1798
2 15.2586 15.2586 0
1 14.1687 14.1687 1.0899
1 16.3485 14.1687 3.2697
1 14.1687 16.3485 3.2697
1 16.3485 16.3485 1.0899
2 0 0 4.3596
2 2.1798 0 6.5394
2 0 2.1798 6.5394
2 2.1798 2.1798 4.3596
1 1.0899 1.0899 5.4495
1 3.2697 1.0899 7.6293
1 1.0899 3.2697 7.6293
1 3.2697 3.2697 5.4495
2 4.3596 0 4.3596
2 6.5394 0 6.5394
2 4.3596 2.1798 6.5394
2 6.5394 2.1798 4.3596
1 5.4495 1.0899 5.4495
1 7.6293 1.0899 7.6293
1 5.4495 3.2697 7.6293
1 7.6293 3.2697 5.4495
2 8.7192 0 4.3596
2 10.899 0 6.5394
2 8.7192 2.1798 6.5394
2 10.899 2.1798 4.3596
1 9.8091 1.0899 5.4495
1 11.9889 1.0899 7.6293
1 9.8091 3.2697 7.6293
1 11.9889 3.2697 5.4495
2 13.0788 0 4.3596
2 15.2586 0 6.5394
2 13.0788 2.1798 6.5394
2 15.2586 2.1798 4.3596
1 14.1687 1.0899 5.4495
1 16.3485 1.0899 7.6293
1 14.1687 3.2697 7.6293
1 16.3485 3.2697 5.4495
2 0 4.3596 4.3596
2 2.1798 4.3596 6.5394
2 0 6.5394 6.5394
2 2.1798 6.5394 4.3596
1 1.0899 5.4495 5.4495
1 3.2697 5.4495 7.6293
1 1.0899 7.6293 7.6293
1 3.2697 7.6293 5.4495
2 4.3596 4.3596 4.3596
2 6.5394 4.3596 6.5394
2 4.3596 6.5394 6.5394
2 6.5394 6.5394 4.3596
1 5.4495 5.4495 5.4495
1 7.6293 5.4495 7.6293
1 5.4495 7.6293 7.6293
1 7.6293 7.6293 5.4495
2 8.7192 4.3596 4.3596
2 10.899 4.3596 6.5394
2 8.7192 6.5394 6.5394
2 10.899 6.5394 4.3596
1 9.8091 5.4495 5.4495
1 11.9889 5.4495 7.6293
1 9.8091 7.6293 7.6293
1 11.9889 7.6293 5.4495
2 13.0788 4.3596 4.3596
2 15.2586 4.3596 6.5394
2 13.0788 6.5394 6.5394
2 15.2586 6.5394 4.3596
1 14.1687 5.4495 5.4495
1 16.3485 5.4495 7.6293
1 14.1687 7.6293 7.6293
1 16.3485 7.6293 5.4495
2 0 8.7192 4.3596
2 2.1798 8.7192 6.5394
2 0 10.899 6.5394
2 2.1798 10.899 4.3596
1 1.0899 9.8091 5.4495
1 3.2697 9.8091 7.6293
1 1.0899 11.9889 7.6293
1 3.2697 11.9889 5.4495
2 4.3596 8.7192 4.3596
2 6.5394 8.7192 6.5394
2 4.3596 10.899 6.5394
2 6.5394 10.899 4.3596
1 5.4495 9.8091 5.4495
1 7.6293 9.8091 7.6293
1 5.4495 11.9889 7.6293
1 7.6293 11.9889 5.4495
2 8.7192 8.7192 4.3596
2 10.899 8.7192 6.5394
2 8.7192 10.899 6.5394
2 10.899 10.899 4.3596
1 9.8091 9.8091 5.4495
1 11.9889 9.8091 7.6293
1 9.8091 11.9889 7.6293
1 11.9889 11.9889 5.4495
2 13.0788 8.7192 4.3596
2 15.2586 8.7192 6.5394
2 13.0788 10.899 6.5394
2 15.2586 10.899 4.3596
1 14.1687 9.8091 5.4495
1 16.3485 9.8091 7.6293
1 14.1687 11.9889 7.6293
1 16.3485 11.9889 5.4495
2 0 13.0788 4.3596
2 2.1798 13.0788 6.5394
2 0 15.2586 6.5394
2 2.1798 15.2586 4.3596
1 1.0899 14.1687 5.4495
1 3.2697 14.1687 7.6293
1 1.0899 16.3485 7.6293
1 3.2697 16.3485 5.4495
2 4.3596 13.0788 4.3596
2 6.5394 13.0788 6.5394
2 4.3596 15.2586 6.5394
2 6.5394 15.2586 4.3596
1 5.4495 14.1687 5.4495
1 7.6293 14.1687 7.6293
1 5.4495 16.3485 7.6293
1 7.6293 16.3485 5.4495
2 8.7192 13.0788 4.3596
2 10.899 13.0788 6.5394
2 8.7192 15.2586 6.5394
2 10.899 15.2586 4.3596
1 9.8091 14.1687 5.4495
1 11.9889 14.1687 7.6293
1 9.8091 16.3485 7.6293
1 11.9889 16.3485 5.4495
2 13.0788 13.0788 4.3596
2 15.2586 13.0788 6.5394
2 13.0788 15.2586 6.5394
2 15.2586 15.2586 4.3596
1 14.1687 14.1687 5.4495
1 16.3485 14.1687 7.6293
1 14.1687 16.3485 7.6293
1 16.3485 16.3485 5.4495
2 0 0 8.7192
2 2.1798 0 10.899
2 0 2.1798 10.899
2 2.1798 2.1798 8.7192
1 1.0899 1.0899 9.8091
1 3.2697 1.0899 11.9889
1 1.0899 3.2697 11.9889
1 3.2697 3.2697 9.8091
2 4.3596 0 8.7192
2 6.5394 0 10.899
2 4.3596 2.1798 10.899
2 6.5394 2.1798 8.7192
1 5.4495 1.0899 9.8091
1 7.6293 1.0899 11.9889
1 5.4495 3.2697 11.9889
1 7.6293 3.2697 9.8091
2 8.7192 0 8.7192
2 10.899 0 10.899
2 8.7192 2.1798 10.899
2 10.899 2.1798 8.7192
1 9.8091 1.0899 9.8091
1 11.9889 1.0899 11.9889
1 9.8091 3.2697 11.9889
1 11.9889 3.2697 9.8091
2 13.0788 0 8.7192
2 15.2586 0 10.899
2 13.0788 2.1798 10.899
2 15.2586 2.1798 8.7192
1 14.1687 1.0899 9.8091
1 16.3485 1.0899 11.9889
1 14.1687 3.2697 11.9889
1 16.3485 3.2697 9.8091
2 0 4.3596 8.7192
2 2.1798 4.3596 10.899
2 0 6.5394 10.899
2 2.1798 6.5394 8.7192
1 1.0899 5.4495 9.8091
1 3.2697 5.4495 11.9889
1 1.0899 7.6293 11.9889
1 3.2697 7.6293 9.8091
2 4.3596 4.3596 8.7192
2 6.5394 4.3596 10.899
2 4.3596 6.5394 10.899
2 6.5394 6.5394 8.7192
1 5.4495 5.4495 9.8091
1 7.6293 5.4495 11.9889
1 5.4495 7.6293 11.9889
1 7.6293 7.6293 9.8091
2 8.7192 4.3596 8.7192
2 10.899 4.3596 10.899
2 8.7192 6.5394 10.899
2 10.899 6.5394 8.7192
1 9.8091 5.4495 9.8091
1 11.9889 5.4495 11.9889
1 9.8091 7.6293 11.9889
1 11.9889 7.6293 9.8091
2 13.0788 4.3596 8.7192
2 15.2586 4.3596 10.899
2 13.0788 6.5394 10.899
2 15.2586 6.5394 8.7192
1 14.1687 5.4495 9.8091
1 16.3485 5.4495 11.9889
1 14.1687 7.6293 11.9889
1 16.3485 7.6293 9.8091
2 0 8.7192 8.7192
2 2.1798 8.7192 10.899
2 0 10.899 10.899
2 2.1798 10.899 8.7192
1 1.0899 9.8091 9.8091
1 3.2697 9.8091 11.9889
1 1.0899 11.9889 11.9889
1 3.2697 11.9889 9.8091
2 4.3596 8.7192 8.7192
2 6.5394 8.7192 10.899
2 4.3596 10.899 10.899
2 6.5394 10.899 8.7192
1 5.4495 9.8091 9.8091
1 7.6293 9.8091 11.9889
1 5.4495 11.9889 11.9889
1 7.6293 11.9889 9.8091
2 8.7192 8.7192 8.7192
2 10.899 8.7192 10.899
2 8.7192 10.899 10.899
2 10.899 10.899 8.7192
1 9.8091 9.8091 9.8091
1 11.9889 9.8091 11.9889
1 9.8091 11.9889 11.9889
1 11.9889 11.9889 9.8091
2 13.0788 8.7192 8.7192
2 15.2586 8.7192 10.899
2 13.0788 10.899 10.899
2 15.2586 10.899 8.7192
1 14.1687 9.8091 9.8091
1 16.3485 9.8091 11.9889
1 14.1687 11.9889 11.9889
1 16.3485 11.9889 9.8091
2 0 13.0788 8.7192
2 2.1798 13.0788 10.899
2 0 15.2586 10.899
2 2.1798 15.2586 8.7192
1 1.0899 14.1687 9.8091
1 3.2697 14.1687 11.9889
1 1.0899 16.3485 11.9889
1 3.2697 16.3485 9.8091
2 4.3596 13.0788 8.7192
2 6.5394 13.0788 10.899
2 4.3596 15.2586 10.899
2 6.5394 15.2586 8.7192
1 5.4495 14.1687 9.8091
1 7.6293 14.1687 11.9889
1 5.4495 16.3485 11.9889
1 7.6293 16.3485 9.8091
2 8.7192 13.0788 8.7192
2 10.899 13.0788 10.899
2 8.7192 15.2586 10.899
2 10.899 15.2586 8.7192
1 9.8091 14.1687 9.8091
1 11.9889 14.1687 11.9889
1 9.8091 16.3485 11.9889
1 11.9889 16.3485 9.8091
2 13.0788 13.0788 8.7192
2 15.2586 13.0788 10.899
2 13.0788 15.2586 10.899
2 15.2586 15.2586 8.7192
1 14.1687 14.1687 9.8091
1 16.3485 14.1687 11.9889
1 14.1687 16.3485 11.9889
1 16.3485 16.3485 9.8091
2 0 0 13.0788
2 2.1798 0 15.2586
2 0 2.1798 15.2586
2 2.1798 2.1798 13.0788
1 1.0899 1.0899 14.1687
1 3.2697 1.0899 16.3485
1 1.0899 3.2697 16.3485
1 3.2697 3.2697 14.1687
2 4.3596 0 13.0788
2 6.5394 0 15.2586
2 4.3596 2.1798 15.2586
2 6.5394 2.1798 13.0788
1 5.4495 1.0899 14.1687
1 7.6293 1.0899 16.3485
1 5.4495 3.2697 16.3485
1 7.6293 3.2697 14.1687
2 8.7192 0 13.0788
2 10.899 0 15.2586
2 8.7192 2.1798 15.2586
2 10.899 2.1798 13.0788
1 9.8091 1.0899 14.1687
1 11.9889 1.0899 16.3485
1 9.8091 3.2697 16.3485
1 11.9889 3.2697 14.1687
2 13.0788 0 13.0788
2 15.2586 0 15.2586
2 13.0788 2.1798 15.2586
2 15.2586 2.1798 13.0788
1 14.1687 1.0899 14.1687
1 16.3485 1.0899 16.3485
1 14.1687 3.2697 16.3485
1 16.3485 3.2697 14.1687
2 0 4.3596 13.0788
2 2.1798 4.3596 15.2586
2 0 6.5394 15.2586
2 2.1798 6.5394 13.0788
1 1.0899 5.4495 14.1687
1 3.2697 5.4495 16.3485
1 1.0899 7.6293 16.3485
1 3.2697 7.6293 14.1687
2 4.3596 4.3596 13.0788
2 6.5394 4.3596 15.2586
2 4.3596 6.5394 15.2586
2 6.5394 6.5394 13.0788
1 5.4495 5.4495 14.1687
1 7.6293 5.4495 16.3485
1 5.4495 7.6293 16.3485
1 7.6293 7.6293 14.1687
2 8.7192 4.3596 13.0788
2 10.899 4.3596 15.2586
2 8.7192 6.5394 15.2586
2 10.899 6.5394 13.0788
1 9.8091 5.4495 14.1687
1 11.9889 5.4495 16.3485
1 9.8091 7.6293 16.3485
1 11.9889 7.6293 14.1687
2 13.0788 4.3596 13.0788
2 15.2586 4.3596 15.2586
2 13.0788 6.5394 15.2586
2 15.2586 6.5394 13.0788
1 14.1687 5.4495 14.1687
1 16.3485 5.4495 16.3485
1 14.1687 7.6293 16.3485
1 16.3485 7.6293 14.1687
2 0 8.7192 13.0788
2 2.1798 8.7192 15.2586
2 0 10.899 15.2586
2 2.1798 10.899 13.0788
1 1.0899 9.8091 14.1687
1 3.2697 9.8091 16.3485
1 1.0899 11.9889 16.3485
1 3.2697 11.9889 14.1687
2 4.3596 8.7192 13.0788
2 6.5394 8.7192 15.2586
2 4.3596 10.899 15.2586
2 6.5394 10.899 13.0788
1 5.4495 9.8091 14.1687
1 7.6293 9.8091 16.3485
1 5.4495 11.9889 16.3485
1 7.6293 11.9889 14.1687
2 8.7192 8.7192 13.0788
2 10.899 8.7192 15.2586
2 8.7192 10.899 15.2586
2 10.899 10.899 13.0788
1 9.8091 9.8091 14.1687
1 11.9889 9.8091 16.3485
1 9.8091 11.9889 16.3485
1 11.9889 11.9889 14.1687
2 13.0788 8.7192 13.0788
2 15.2586 8.7192 15.2586
2 13.0788 10.899 15.2586
2 15.2586 10.899 13.0788
1 14.1687 9.8091 14.1687
1 16.3485 9.8091 16.3485
1 14.1687 11.9889 16.3485
1 16.3485 11.9889 14.1687
2 0 13.0788 13.0788
2 2.1798 13.0788 15.2586
2 0 15.2586 15.2586
2 2.1798 15.2586 13.0788
1 1.0899 14.1687 14.1687
1 3.2697 14.1687 16.3485
1 1.0899 16.3485 16.3485
1 3.2697 16.3485 14.1687
2 4.3596 13.0788 13.0788
2 6.5394 13.0788 15.2586
2 4.3596 15.2586 15.2586
2 6.5394 15.2586 13.0788
1 5.4495 14.1687 14.1687
1 7.6293 14.1687 16.3485
1 5.4495 16.3485 16.3485
1 7.6293 16.3485 14.1687
2 8.7192 13.0788 13.0788
2 10.899 13.0788 15.2586
2 8.7192 15.2586 15.2586
2 10.899 15.2586 13.0788
1 9.8091 14.1687 14.1687
1 11.9889 14.1687 16.3485
1 9.8091 16.3485 16.3485
1 11.9889 16.3485 14.1687
2 13.0788 13.0788 13.0788
2 15.2586 13.0788 15.2586
2 13.0788 15.2586 15.2586
2 15.2586 15.2586 13.0788
1 14.1687 14.1687 14.1687
1 16.3485 14.1687 16.3485
1 14.1687 16.3485 16.3485
1 16.3485 16.3485 14.1687
500
Atoms. Timestep: 1
2 17.4376 0.000654915 0.00090818
2 2.17887 17.4374 2.1789
2 0.000541188 2.17995 2.18064
2 2.18038 2.17944 17.4378
2 1.0896 1.09027 1.09054
1 3.26924 1.08967 3.26909
1 1.0896 3.26924 3.27019
1 3.26932 3.27023 1.08956
2 4.36047 0.000860472 17.438
2 6.53967 4.63172e-06 2.17919
2 4.36043 2.17945 2.18078
2 6.54031 2.18065 17.4375
1 5.45006 1.09039 1.08971
1 7.62878 1.09014 3.26981
1 5.44916 3.26925 3.27036
1 7.62905 3.26972 1.09018
2 8.71942 17.4384 17.4382
2 10.8992 17.438 2.18026
2 8.71845 2.17984 2.17891
2 10.8991 2.17912 0.000340421
1 9.80969 1.08966 1.09007
1 11.9889 1.08935 3.26923
1 9.80918 3.26915 3.26924
1 11.9888 3.26932 1.08955
2 13.079 17.4375 0.000471619
2 15.2588 17.4382 2.17937
2 13.0796 2.17912 2.17961
2 15.2589 2.18056 0.000974819
1 14.1687 1.09016 1.09016
1 16.3481 1.08963 3.2696
1 14.1691 3.26974 3.26942
1 16.3483 3.26941 1.09009
2 17.4377 4.35948 0.000451724
2 2.17889 4.35861 2.17968
2 0.000280495 6.53929 2.18015
2 2.17895 6.53978 17.4375
1 1.09028 5.44979 1.09047
1 3.26993 5.44927 3.26925
1 1.09025 7.62991 3.26948
1 3.2696 7.62874 1.08941
2 4.35915 4.36017 17.4375
2 6.5393 4.36016 2.18025
2 4.35929 6.53978 2.17912
2 6.53845 6.54019 0.000336088
1 5.45001 5.44911 1.09041
1 7.62926 5.44922 3.26943
1 5.44993 7.62945 3.27022
1 7.62933 7.62944 1.09047
2 8.72002 4.35902 0.000539293
2 10.8994 4.35958 2.18023
2 8.71912 6.53982 2.18051
2 10.898 6.53865 17.4381
1 9.80879 5.44978 1.08934
1 11.9895 5.44962 3.26977
1 9.80855 7.62879 3.26943
1 11.9885 7.62877 1.08957
2 13.0793 4.35921 4.9143e-05
2 15.2583 4.36035 2.17948
2 13.0784 6.53859 2.1808
2 15.2595 6.53842 0.000546047
1 14.1692 5.44967 1.0898
1 16.3485 5.44957 3.26936
1 14.1688 7.62947 3.2701
1 16.3483 7.62959 1.08928
2 0.000732907 8.71978 0.000788402
2 2.17963 8.71945 2.17912
2 7.05862e-05 10.8998 2.17974
2 2.18029 10.8986 17.4379
1 1.09046 9.80922 1.08993
1 3.26996 9.8096 3.26928
1 1.08999 11.9885 3.26941
1 3.27001 11.9883 1.09004
2 4.3604 8.71853 17.4384
2 6.5398 8.71828 2.18075
2 4.36005 10.8996 2.17919
2 6.5384 10.899 0.000804518
1 5.44951 9.80954 1.08967
1 7.62901 9.80848 3.26952
1 5.44956 11.9891 3.27002
2 7.62885 11.9892 1.08987
2 8.71853 8.719 0.00036712
2 10.8982 8.71994 2.1792
2 8.71839 10.8985 2.17956
1 9.80848 9.80968 1.08957
1 11.9893 9.80894 3.26975
1 9.80971 11.989 3.26987
1 11.9888 11.9885 1.08931
2 13.0791 8.7183 17.4374
2 15.2581 8.71958 2.17884
2 13.0786 10.8989 2.18029
2 15.2585 10.8996 17.4382
1 14.1686 9.8095 1.0896
1 16.3481 9.80912 3.26997
1 14.1681 11.9883 3.27017
2 16.3485 11.9889 1.08935
2 17.4383 13.079 17.4375
2 2.17918 13.0779 2.1803
2 0.000574014 15.259 2.18006
2 2.17998 15.258 17.4383
1 1.0894 14.1681 1.08955
1 3.26996 14.169 3.27034
1 1.08979 16.3482 3.26965
1 3.27005 16.3491 1.09055
2 4.35867 13.0792 0.000471597
2 6.53921 13.0796 2.17886
2 4.35928 15.2586 2.18034
2 6.53867 15.2594 17.4376
1 5.44974 14.1692 1.08934
1 7.62908 14.169 3.27012
1 5.44939 16.3484 3.2701
1 7.62938 16.3491 1.09027
2 8.71996 13.0781 17.4383
2 10.8993 13.0781 2.17909
2 8.71929 15.2589 2.18057
2 10.9 15.2582 17.438
1 9.80931 14.1681 1.08945
1 11.9888 14.1688 3.26987
1 9.80894 16.3486 3.26953
2 11.9888 16.3484 1.08932
2 13.0797 13.0789 17.4376
2 15.2588 13.0779 2.18047
2 13.0785 15.259 2.18065
2 15.2594 15.259 17.4379
1 14.1682 14.1688 1.08983
1 16.3482 14.1682 3.26944
1 14.1693 16.349 3.26967
1 16.3481 16.3486 1.08982
2 17.4378 9.93283e-06 4.35921
2 2.17995 17.4378 6.53891
2 17.4375 2.18029 6.53976
2 2.17938 2.17917 4.35984
1 1.08959 1.09049 5.44915
1 3.26953 1.08965 7.62944
1 1.08926 3.26975 7.62967
2 3.26926 3.26992 5.44914
2 4.36046 17.4374 4.35939
2 6.53916 17.4379 6.53888
2 4.35932 2.17961 6.54039
2 6.53957 2.18051 4.36008
1 5.44975 1.08987 5.44972
1 7.62898 1.09043 7.62943
1 5.45011 3.27008 7.62949
1 7.6295 3.27031 5.44931
2 8.71927 17.4375 4.3603
2 10.8989 0.000379988 6.53919
2 8.71993 2.18029 6.54012
2 10.8989 2.17949 4.35902
1 9.80888 1.08968 5.44894
1 11.9886 1.08926 7.62914
1 9.80972 3.26987 7.62875
1 11.9889 3.26934 5.44933
2 13.0781 4.12769e-05 4.35881
2 15.2585 17.4375 6.53991
2 13.0786 2.18043 6.5384
2 15.2578 2.17956 4.35989
1 16.3484 1.08929 7.62917
1 14.1682 3.27022 7.62936
1 16.348 3.26929 5.45012
2 17.438 4.36051 4.36031
2 2.18073 4.35948 6.53982
2 0.000218806 6.53871 6.54037
2 2.18023 6.54029 4.35963
1 1.0901 5.44904 5.44928
1 3.27031 5.44936 7.62928
1 1.08967 7.62944 7.62872
1 3.27003 7.62885 5.45006
2 4.35946 4.35933 4.36055
2 6.53882 4.35877 6.53902
2 4.35949 6.53907 6.53881
2 6.54003 6.53966 4.35965
1 5.44927 5.44949 5.44925
1 7.62978 5.45008 7.62893
1 7.62903 7.62897 5.4491
2 8.7182 4.36002 4.36049
2 10.8994 4.3601 6.54023
2 8.71837 6.53928 6.53898
2 10.8998 6.53966 4.35905
1 9.80857 5.44949 5.44918
1 11.9894 5.45005 7.62947
1 9.80941 7.62901 7.62919
1 11.989 7.62968 5.45006
2 13.0797 4.3597 4.35892
2 15.2595 4.35894 6.54015
2 13.0796 6.53885 6.53979
2 15.2584 6.53944 4.35893
1 14.1692 5.4492 5.45006
1 16.3482 5.4496 7.62953
1 14.1682 7.62897 7.62986
1 16.3491 7.62864 5.44986
2 0.000494923 8.71944 4.35987
2 2.18053 8.71866 6.53957
2 0.000982234 10.8987 6.53861
2 2.18023 10.8997 4.36045
1 1.09045 9.80853 5.44971
1 3.27008 9.8091 7.62961
1 1.0905 11.9894 7.62989
1 3.27019 11.9892 5.449
2 4.36007 8.71885 4.35996
2 6.53924 8.71832 6.54001
2 4.35931 10.8985 6.53906
2 6.53964 10.8994 4.35913
1 5.44913 9.80929 5.4493
1 7.62987 9.80968 7.62936
1 5.44965 11.9895 7.62912
1 7.62865 11.989 5.44981
2 8.72014 8.71934 4.36047
2 10.8983 8.71936 6.53971
2 8.7182 10.8989 6.54038
2 10.8984 10.899 4.3596
1 9.8095 9.80903 5.44986
1 11.9894 9.80889 7.62985
1 9.80895 11.9889 7.62942
1 11.9885 11.9885 5.44924
2 13.0789 8.7184 4.35933
2 15.2588 8.71831 6.54023
2 13.0782 10.8995 6.53891
2 15.2588 10.899 4.35887
1 14.1683 9.80843 5.4494
1 16.3485 9.80903 7.6287
1 14.1686 11.9893 7.62911
1 16.3479 11.9885 5.4493
2 3.39873e-05 13.0785 4.35956
2 2.17912 13.0797 6.53867
2 0.000143259 15.2587 6.53879
2 2.17947 15.2578 4.36032
1 1.0895 14.1691 5.45012
1 3.26933 14.169 7.62892
1 1.08942 16.3488 7.62884
1 3.26967 16.3482 5.44946
2 4.36001 13.0792 4.36022
2 6.5387 13.0789 6.53846
2 4.35925 15.2579 6.54006
2 6.53842 15.2591 4.35977
1 5.44975 14.1691 5.44912
1 7.6298 14.1685 7.62971
1 5.44922 16.348 7.62963
1 7.62909 16.3479 5.44905
2 8.71957 13.0792 4.36025
2 10.8982 13.0794 6.53923
2 8.7183 15.2579 6.54025
2 10.899 15.2589 4.35901
1 9.80893 14.1692 5.44897
1 11.9894 14.169 7.6287
1 9.80922 16.3489 7.62886
1 11.9889 16.3478 5.44942
2 13.0796 13.0791 4.36017
2 15.2588 13.0794 6.54031
2 13.0787 15.2578 6.53887
2 15.2585 15.2583 4.36013
1 14.169 14.1691 5.44936
1 16.3479 14.1687 7.62869
1 14.1686 16.3489 7.6292
1 16.3489 16.3482 5.44994
2 0.000814201 17.4378 8.71912
2 2.1807 0.000699706 10.8993
2 17.4378 2.17943 10.8992
2 2.18036 2.17976 8.71949
1 1.08978 1.08924 9.80922
1 3.26972 1.09016 11.989
1 1.08968 3.27025 11.9885
1 3.26935 3.26942 9.80905
2 4.36056 0.000130576 8.71845
2 6.53948 17.4378 10.899
2 4.3602 2.18014 10.8987
2 6.53989 2.18023 8.71822
1 5.45004 1.09029 9.80888
1 7.62976 1.08975 11.9892
1 5.44933 3.26955 11.9885
1 7.62901 3.26989 9.80973
2 8.71999 17.4375 8.7187
2 10.8991 17.4381 10.9
2 8.71928 2.17925 10.8998
2 10.8987 2.1796 8.71836
1 9.80903 1.0893 9.80881
1 11.9892 1.09003 11.989
1 9.80845 3.26965 11.9894
1 11.9883 3.2696 9.80864
2 13.0796 17.4381 8.71832
2 15.2586 1.76297e-05 10.8987
2 13.0788 2.17927 10.8982
2 15.2584 2.18036 8.71987
1 14.1693 1.0897 9.80903
1 16.3485 1.09 11.9888
1 14.1685 3.26938 11.9891
1 16.3491 3.26902 9.80948
2 17.4378 4.35973 8.71864
2 2.18071 4.35893 10.8984
2 17.4379 6.53897 10.8989
2 2.17963 6.53923 8.71973
1 1.08939 5.44902 9.80959
1 3.26965 5.44975 11.9891
1 1.09036 7.62965 11.989
1 3.26934 7.62945 9.80953
2 4.35928 4.3587 8.71881
2 6.53861 4.3598 10.8997
2 4.35894 6.54036 10.8985
2 6.53856 6.5395 8.71912
1 5.44935 5.44884 9.80891
1 7.62965 5.44998 11.9887
1 5.44903 7.62988 11.9888
1 7.62966 7.62992 9.80929
2 8.71867 4.35974 8.71881
2 10.8995 4.35936 10.8988
2 8.71941 6.53913 10.8983
2 10.8992 6.53999 8.7187
1 9.80849 5.4494 9.8089
1 11.9893 5.44947 11.9888
1 9.80856 7.62987 11.9891
1 11.9895 7.62866 9.80943
2 13.0788 4.35881 8.71977
2 15.259 4.35905 10.8991
2 13.0781 6.5392 10.8985
2 15.2588 6.54011 8.71952
1 16.3485 5.44957 11.9886
1 14.1686 7.62888 11.9891
1 16.3488 7.62981 9.8087
2 17.4384 8.71824 8.71866
2 2.17889 8.72012 10.8987
2 17.4378 10.899 10.8992
2 2.17942 10.8991 8.71886
1 1.09021 9.80956 9.80872
1 3.27007 9.80877 11.9887
1 1.08975 11.9884 11.9895
1 3.26911 11.9894 9.80941
2 4.35885 8.71829 8.71881
2 6.53933 8.71897 10.8986
2 4.35983 10.8981 10.899
2 6.53839 10.8994 8.71896
1 5.44955 9.80907 9.80899
1 7.62951 9.80966 11.989
1 5.45001 11.9894 11.9891
1 7.62972 11.9892 9.80895
2 8.71959 8.72005 8.71918
2 10.899 8.71969 10.9
2 8.71902 10.8983 10.899
2 10.898 10.8999 8.71897
1 9.80884 9.8089 9.80969
1 11.9896 9.80972 11.9886
1 9.80848 11.9885 11.9889
1 11.9887 11.9885 9.80964
2 13.0784 8.71915 8.71904
2 15.2594 8.71904 10.8991
2 13.0791 10.899 10.8994
2 15.2595 10.8994 8.72019
1 14.1691 9.80883 9.8087
1 14.1692 11.9894 11.989
2 17.4376 13.0795 8.71973
2 2.18006 13.0786 10.8981
2 17.4374 15.2583 10.8999
2 2.18072 15.2577 8.71943
1 1.08955 14.1688 9.8095
1 3.27024 14.1693 11.9894
1 1.09037 16.349 11.9895
1 3.26969 16.3478 9.80863
2 4.35952 13.0781 8.7194
2 6.53868 13.0796 10.8992
2 4.35913 15.2577 10.8984
2 6.53854 15.2593 8.71952
1 5.44955 14.1691 9.80953
1 7.62993 14.1683 11.9884
1 5.44981 16.3479 11.9885
1 7.62867 16.3488 9.80844
2 8.7187 13.0781 8.71911
2 10.8989 13.0786 10.8997
2 8.71984 15.2596 10.8999
2 10.8984 15.2586 8.7199
1 11.9887 14.1692 11.9894
1 9.80863 16.3489 11.9883
1 11.9894 16.3482 9.80933
2 13.0785 13.0787 8.72002
2 15.2595 13.0785 10.8982
2 13.0791 15.2588 10.8996
2 15.2582 15.2589 8.71994
1 14.1685 14.1685 9.80847
2 16.349 14.1691 11.9893
1 14.1688 16.349 11.9891
1 16.348 16.3487 9.8091
2 17.4382 17.4374 13.079
2 2.18051 17.4379 15.258
2 0.000384879 2.18079 15.2588
2 2.18014 2.18025 13.0794
1 1.08998 1.09015 14.1685
1 3.2695 1.0901 16.3485
1 1.09037 3.27013 16.3489
1 3.2702 3.26953 14.1692
2 4.35875 0.000646298 13.0783
2 6.53942 0.000696325 15.2586
2 4.36 2.18049 15.2592
2 6.53886 2.18055 13.0784
1 5.44916 1.08932 14.1685
1 7.62906 1.09051 16.3486
1 5.44935 3.26979 16.3487
1 7.62872 3.27027 14.1693
2 8.72005 0.000705328 13.0786
2 10.8987 17.438 15.2577
2 8.71925 2.17929 15.2589
2 10.8998 2.18006 13.0779
1 9.80958 1.09027 14.1688
1 11.9889 1.0896 16.3489
1 9.80925 3.27027 16.3482
1 11.9892 3.26958 14.1684
2 13.0789 0.00089364 13.0784
2 15.2579 0.000808715 15.2589
2 13.0785 2.18056 15.2578
2 15.2583 2.1789 13.0798
1 14.1691 1.09051 14.1681
1 16.3487 1.08989 16.3481
1 14.1684 3.27024 16.3481
1 16.348 3.26995 14.1686
2 17.4375 4.35872 13.0784
2 2.17922 4.35956 15.2591
2 17.4382 6.53839 15.2591
2 2.17948 6.54027 13.0793
1 1.08961 5.44942 14.1689
1 3.26973 5.44955 16.3479
1 1.08978 7.62888 16.349
1 3.26996 7.62981 14.169
2 4.35991 4.35949 13.0784
2 6.53878 4.36048 15.2583
2 4.35949 6.53946 15.2585
2 6.5401 6.53846 13.0782
1 5.44993 5.44915 14.169
1 7.6293 5.44978 16.3488
1 5.44989 7.62945 16.3487
1 7.62917 7.62879 14.169
2 8.71833 4.35918 13.0781
2 10.899 4.35873 15.2589
2 8.71903 6.53926 15.2581
2 10.9 6.53872 13.0788
1 9.80957 5.45002 14.1694
1 11.9893 5.44916 16.3479
1 9.80955 7.62949 16.3479
1 11.9885 7.62882 14.1693
2 13.078 4.35929 13.0785
2 15.2576 4.35866 15.2593
2 13.0793 6.5397 15.2577
2 15.2578 6.53954 13.0793
1 14.169 5.4497 14.1685
1 16.348 5.44942 16.3484
1 14.1693 7.62941 16.3479
1 16.3483 7.62884 14.1681
2 0.000745793 8.71821 13.0778
2 2.18065 8.71828 15.2589
2 0.000442132 10.8987 15.2583
2 2.18052 10.8987 13.0785
1 1.08972 9.80902 14.169
1 1.08998 11.9886 16.349
1 3.26953 11.9887 14.1685
2 4.35909 8.71982 13.0792
2 6.53977 8.71842 15.2588
2 4.3595 10.8995 15.2586
2 6.53989 10.8993 13.0791
1 5.44997 9.80898 14.169
1 7.62907 9.80861 16.348
1 5.44923 11.9894 16.3488
1 7.6291 11.9891 14.1681
2 8.71875 8.71844 13.0783
2 10.8995 8.71864 15.2592
2 8.71922 10.8986 15.2592
2 10.8985 10.898 13.0781
1 9.80949 9.80912 14.1687
1 9.80924 11.9895 16.3491
1 11.9884 11.9884 14.1693
2 13.0796 8.72009 13.0785
2 15.2579 8.71918 15.2582
2 13.0797 10.8997 15.2578
2 15.2582 10.8988 13.0792
1 14.1688 9.80846 14.1688
1 14.169 11.989 16.348
1 16.3483 11.9894 14.1686
2 17.4375 13.079 13.0797
2 2.17917 13.079 15.2589
2 0.000131033 15.2593 15.2592
2 2.17882 15.2591 13.0791
1 1.08984 14.1688 14.1694
1 3.26962 14.1692 16.3482
1 1.09029 16.3491 16.3484
1 3.26905 16.3485 14.1685
2 4.36 13.0779 13.0798
2 6.53972 13.079 15.2589
2 4.35942 15.2589 15.2579
2 6.53905 15.2585 13.0781
1 5.44953 14.1683 14.1681
1 7.62994 14.1687 16.3484
1 5.44993 16.3485 16.3484
1 7.62937 16.3481 14.1691
2 8.71957 13.0798 13.0795
2 8.71946 15.2592 15.2576
2 10.8983 15.2589 13.0781
1 9.8091 14.1692 14.1681
1 9.80969 16.3489 16.3485
1 11.9885 16.3489 14.1688
2 13.0779 13.0796 13.0794
2 15.2592 13.0786 15.2588
2 13.0783 15.2587 15.2595
2 15.2581 15.2583 13.0795
1 14.169 14.1693 14.1692
1 16.3485 14.1681 16.3478
1 14.1684 16.3488 16.3486
1 16.3486 16.3479 14.1693
492
Atoms. Timestep: 2
2 17.4368 0.00136151 0.00186791
2 2.17788 17.4364 2.17794
2 0.00113391 2.18005 2.18143
2 2.1809 2.17903 17.4372
1 1.08913 1.09083 1.09153
1 1.08929 3.26878 3.27067
1 3.26894 3.27076 1.08922
2 4.36135 0.00172081 17.4376
2 6.53993 9.30007e-06 2.17859
2 4.36127 2.17909 2.18176
2 6.54122 2.1815 17.4366
1 5.45063 1.09088 1.08953
1 7.62827 1.09038 3.26993
1 5.44883 3.26881 3.27102
1 7.6288 3.26974 1.09046
2 8.71963 17.4384 17.4379
2 10.8995 17.4376 2.18066
2 8.7177 2.17989 2.17802
2 10.8993 2.17844 0.000680727
1 9.81028 1.08942 1.09024
1 11.9888 1.0888 3.26876
1 9.80925 3.2686 3.26878
1 11.9887 3.26894 1.08921
2 13.0791 17.4366 0.000994908
2 15.2589 17.4379 2.17895
2 13.0804 2.17845 2.17942
2 15.2592 2.18132 0.00194934
1 14.1687 1.09042 1.09041
1 16.3477 1.08935 3.26951
1 14.1695 3.26977 3.26914
1 16.3481 3.26912 1.09028
2 17.4369 4.35935 0.000903424
2 2.17798 4.35761 2.17957
2 0.000560936 6.53918 2.18051
2 2.17811 6.54016 17.4366
1 1.09066 5.45009 1.09104
1 3.27016 5.44903 3.26879
1 1.09061 7.63053 3.26926
1 3.26949 7.62819 1.08891
2 4.3587 4.36073 17.4365
2 6.53921 4.36072 2.18071
2 4.35897 6.54016 2.17843
2 6.53749 6.54098 0.000672209
1 5.45053 5.44872 1.09092
1 7.62923 5.44894 3.26917
1 5.45035 7.62961 3.27074
2 8.72083 4.35845 0.00107846
2 10.8997 4.35956 2.18066
2 8.71903 6.54025 2.18122
2 10.897 6.5379 17.4377
1 9.80848 5.45006 1.08878
1 11.9901 5.44974 3.26984
1 9.80801 7.62827 3.26916
1 11.988 7.62823 1.08924
2 13.0797 4.35881 9.82597e-05
2 15.2579 4.36111 2.17917
2 13.0779 6.53779 2.1818
2 15.2603 6.53745 0.00109188
1 14.1697 5.44985 1.0897
1 16.3486 5.44965 3.26902
1 14.1689 7.62963 3.2705
1 16.348 7.62988 1.08865
2 0.00148354 8.72034 0.00159448
2 2.17946 8.71969 2.17843
2 8.93644e-05 10.9006 2.17963
2 2.18076 10.8982 17.4374
1 1.09103 9.80935 1.08996
1 1.09008 11.9881 3.26912
1 3.27033 11.9877 1.09018
2 4.36121 8.71785 17.4384
2 6.5402 8.71736 2.1817
2 4.36049 10.9002 2.17859
2 6.53745 10.899 0.00166051
1 5.44952 9.80998 1.08944
1 7.62873 9.80785 3.26934
1 5.44961 11.9893 3.27035
2 7.62817 11.9896 1.08981
2 8.71787 8.71881 0.000731839
2 10.8974 8.72068 2.1786
2 8.71752 10.898 2.17926
1 9.80786 9.81025 1.08924
1 11.9897 9.80877 3.26981
1 9.81032 11.9891 3.27004
1 11.9886 11.9881 1.08872
2 13.0794 8.71738 17.4364
2 15.2575 8.71995 2.17788
2 13.0784 10.8987 2.18079
2 15.2585 10.9003 17.4381
1 14.1685 9.8099 1.08929
1 16.3478 9.80914 3.27023
1 14.1676 11.9877 3.27063
2 16.3486 11.989 1.08851
2 17.4382 13.0791 17.4366
2 2.17856 13.0771 2.18081
2 0.00114781 15.2594 2.18031
2 2.18016 15.2574 17.4381
1 1.0889 14.1675 1.0892
1 3.27022 14.1693 3.27099
1 1.08967 16.348 3.26959
1 3.27039 16.3496 1.09121
2 4.35773 13.0797 0.00094308
2 6.53907 13.0803 2.17788
2 4.35896 15.2585 2.18088
2 6.53795 15.2602 17.4368
1 5.44997 14.1698 1.08877
1 7.62886 14.1693 3.27054
1 5.44928 16.3483 3.27051
1 7.62947 16.3496 1.09064
2 8.72067 13.0773 17.4383
2 10.8997 13.0774 2.17837
2 8.71939 15.2592 2.18134
2 10.901 15.2579 17.4377
1 9.80953 14.1675 1.08901
1 11.9887 14.169 3.27003
1 9.80878 16.3488 3.26935
2 11.9887 16.3482 1.08844
2 13.0806 13.079 17.4369
2 15.259 13.0769 2.18109
2 13.0781 15.2595 2.18146
2 15.2601 15.2595 17.4374
1 14.1677 14.169 1.08976
1 16.348 14.1676 3.26918
1 14.17 16.3494 3.26964
1 16.3476 16.3487 1.08974
2 17.4372 1.98442e-05 4.35883
2 2.18011 17.4373 6.53841
2 17.4365 2.18079 6.54011
2 2.179 2.17859 4.36013
1 1.08928 1.09108 5.44881
1 3.26937 1.0894 7.62958
1 1.08862 3.2698 7.63003
2 4.36132 17.4365 4.35918
2 6.53891 17.4374 6.53837
2 4.35898 2.17948 6.54133
2 6.53974 2.18123 4.36057
1 5.45001 1.08985 5.44994
1 7.62867 1.09095 7.62956
1 5.45072 3.27047 7.62969
1 7.62969 3.27092 5.44912
2 8.71934 17.4366 4.36099
2 10.8989 0.000759823 6.53898
2 8.72066 2.18077 6.54084
2 10.8988 2.17918 4.35845
1 9.80866 1.08946 5.44839
1 11.9883 1.08862 7.62899
1 9.81033 3.27003 7.62821
1 11.9889 3.26897 5.44915
2 13.0774 6.46436e-05 4.35801
2 15.2583 17.4366 6.54044
2 13.0785 2.18107 6.53742
2 15.257 2.17934 4.36016
1 16.3483 1.08867 7.62905
1 14.1676 3.27074 7.62942
1 16.3475 3.26887 5.45075
2 17.4376 4.36141 4.36101
2 2.18171 4.35931 6.54018
2 0.000437607 6.53801 6.54133
2 2.18067 6.54117 4.35965
1 1.0903 5.44857 5.44905
1 3.27092 5.44922 7.62927
1 1.08944 7.62957 7.62813
1 3.27036 7.62839 5.45062
2 4.35927 4.35901 4.36154
2 6.53823 4.35794 6.53864
2 4.35937 6.53872 6.53821
2 6.54065 6.53992 4.35971
1 5.44904 5.44948 5.449
1 7.63025 5.45066 7.62855
1 7.62875 7.62864 5.44871
2 8.71721 4.36044 4.36138
2 10.8997 4.3606 6.54106
2 8.71755 6.53916 6.53855
2 10.9007 6.53993 4.3585
1 9.80804 5.44948 5.44886
1 11.99 5.45059 7.62964
1 9.80972 7.62873 7.62907
1 11.989 7.63005 5.45062
2 13.0806 4.35979 4.35825
2 15.2603 4.35829 6.5409
2 13.0804 6.5383 6.54019
2 15.2582 6.53948 4.35826
1 14.1696 5.4489 5.45062
1 16.3478 5.44969 7.62976
1 14.1676 7.62863 7.63042
1 16.3496 7.62797 5.45022
2 0.000989759 8.71968 4.36013
2 2.18126 8.71811 6.53975
2 0.00196431 10.8984 6.53782
2 2.18067 10.9003 4.36131
1 1.091 9.80797 5.44992
1 3.27046 9.8091 7.62991
1 1.0911 11.9899 7.63047
2 4.36054 8.7185 4.36031
2 6.53909 8.71746 6.54059
2 4.35902 10.898 6.53872
2 6.53987 10.8997 4.35866
1 5.44876 9.80947 5.44911