  <PP_INFO>

############################################################
#    Opium Parameter File                                  #
############################################################
#-----------------------------------------------------------
#Command line   : opium cs_srl_gga log all rpt upf 
 
#Opium version  : 3.6 
#Compile Host   : whoville2.chem.upenn.edu 
#Compile OS     : Linux 2.6.18-92.1.13.el5 x86_64 
#Compile Date   : Wed Jan 19 10:47:14 EST 2011 
#-----------------------------------------------------------
#Execution Host : whoville2.chem.upenn.edu 
#Execution Date : Fri Mar 23 13:47:20 2012
 
#-----------------------------------------------------------
############################################################
[Atom]
       Cs                 # chem symbol
       13                 # norb: number of orbitals
       100 2.00  -13.0   # reference configuration
       200 2.00   -1.4   # reference configuration
       210 6.00   -0.4   # reference configuration
       300 2.00   -0.1   # reference configuration
       310 6.00  -13.0   # reference configuration
       320 10.00   -1.4   # reference configuration
       400 2.00   -0.4   # reference configuration
       410 6.00   -0.1   # reference configuration
       420 10.00   -1.4   # reference configuration 
       500 1.00   -0.1   # reference configuration       
       510 6.00   -0.1   # reference configuration
       520 0.00   -1.4   # reference configuration       
       600 0.00    -1.0

       [Pseudo]
       4  1.85 1.78 1.83 1.81
       opt
    
       [Optinfo]
       7.07  10    # rc[a.u.]  Qc[sqrt(Ry)]  Nb
       7.07  10    # rc[a.u.]  Qc[sqrt(Ry)]  Nb
       7.07  10    # rc[a.u.]  Qc[sqrt(Ry)]  Nb
       7.07  10
      
       [Configs]
       3                 # number of valence configurations
       #
       500 0.00   -1.4   # test configuration
       510 6.00   -0.4   # test configuration
       520 0.00   -0.4   # test configuration     
       600 0.00   -0.4	
       #
       500 2.00   -1.4   # test configuration
       510 6.00   -0.4   # test configuration
       520 0.00   -0.4   # test configuration
       600 1.00   -0.4   
       #
       500 2.00   -1.4   # test configuration
       510 6.00   -0.4   # test configuration
       520 0.00   -0.4   # test configuration
       600 1.00   -0.4  

[XC]
gga 

[Relativity]
srl		 # nrl / srl / frl

[KBdesign]
s                 # local orbital 
1                 # number of aug. operators
au 0.1 1.68  2.05  # unit(gp or au)  left  right  height(Ry)

############################################################
  </PP_INFO>



<PP_HEADER>
   0         Version Number
   Cs        Element
   NC        Norm - Conserving pseudopotential
    F      Nonlinear Core Correction
SLA  PW   PBE  PBE     PBE  Exchange-Correlation functional
 9          Z valence
 0          Total energy
 0.000000   0.000000     Suggested cutoff for wfc and rho
 2           Max angular momentum component
 1179           Number of points in mesh
 3  3     Number of Wavefuncitons, Number of Projectors
 Wavefunctions         nl  l   occ
                       S  0  1.000000
                       P  1  6.000000
                       D  2  0.000000
</PP_HEADER>
<PP_MESH>
  <PP_R>
 2.6295358943292940e-05  2.6639430227244503e-05  2.6988003638308885e-05  2.7341138086222196e-05 
 2.7698893251546638e-05  2.8061329595756661e-05  2.8428508371457025e-05  2.8800491632734759e-05 
 2.9177342245646386e-05  2.9559123898842421e-05  2.9945901114330935e-05  3.0337739258381911e-05 
 3.0734704552574310e-05  3.1136864084987666e-05  3.1544285821540164e-05  3.1957038617474919e-05 
 3.2375192228996875e-05  3.2798817325061614e-05  3.3227985499318658e-05  3.3662769282210908e-05 
 3.4103242153232493e-05  3.4549478553346978e-05  3.5001553897568090e-05  3.5459544587705010e-05 
 3.5923528025274365e-05  3.6393582624581462e-05  3.6869787825972362e-05  3.7352224109259515e-05 
 3.7840973007323039e-05  3.8336117119889972e-05  3.8837740127493846e-05  3.9345926805616834e-05 
 3.9860763039017118e-05  4.0382335836243432e-05  4.0910733344339959e-05  4.1446044863743148e-05 
 4.1988360863373931e-05  4.2537772995926968e-05  4.3094374113360351e-05  4.3658258282587654e-05 
 4.4229520801375644e-05  4.4808258214449553e-05  4.5394568329809693e-05  4.5988550235261048e-05 
 4.6590304315159355e-05  4.7199932267376368e-05  4.7817537120486949e-05  4.8443223251181258e-05 
 4.9077096401904591e-05  4.9719263698728079e-05  5.0369833669453347e-05  5.1028916261953788e-05 
 5.1696622862756260e-05  5.2373066315865500e-05  5.3058360941835081e-05  5.3752622557087855e-05 
 5.4455968493489236e-05  5.5168517618176488e-05  5.5890390353647669e-05  5.6621708698113099e-05 
 5.7362596246113657e-05  5.8113178209408328e-05  5.8873581438135381e-05  5.9643934442250294e-05 
 6.0424367413244302e-05  6.1215012246146970e-05  6.2016002561816872e-05  6.2827473729523830e-05 
 6.3649562889826601e-05  6.4482408977749816e-05  6.5326152746264629e-05  6.6180936790076114e-05 
 6.7046905569722164e-05  6.7924205435987648e-05  6.8812984654637954e-05  6.9713393431476459e-05 
 7.0625583937729587e-05  7.1549710335763831e-05  7.2485928805140066e-05  7.3434397569007895e-05 
 7.4395276920845841e-05  7.5368729251551372e-05  7.6354919076885284e-05  7.7354013065275294e-05 
 7.8366180065983325e-05  7.9391591137641644e-05  8.0430419577161888e-05  8.1482840949022905e-05 
 8.2549033114941289e-05  8.3629176263930787e-05  8.4723452942754397e-05  8.5832048086775366e-05 
 8.6955149051211569e-05  8.8092945642799115e-05  8.9245630151870074e-05  9.0413397384849869e-05 
 9.1596444697180360e-05  9.2794972026673039e-05  9.4009181927299249e-05  9.5239279603422095e-05 
 9.6485472944476654e-05  9.7747972560103576e-05  9.9026991815742799e-05  1.0032274686869268e-04 
 1.0163545670464124e-04  1.0296534317467517e-04  1.0431263103277302e-04  1.0567754797378954e-04 
 1.0706032467193645e-04  1.0846119481976685e-04  1.0988039516766987e-04  1.1131816556388226e-04 
 1.1277474899502301e-04  1.1425039162715864e-04  1.1574534284740626e-04  1.1725985530608019e-04 
 1.1879418495939066e-04  1.2034859111270091e-04  1.2192333646435051e-04  1.2351868715005190e-04 
 1.2513491278786808e-04  1.2677228652377859e-04  1.2843108507784197e-04  1.3011158879096198e-04 
 1.3181408167226575e-04  1.3353885144710238e-04  1.3528618960566895e-04  1.3705639145227311e-04 
 1.3884975615524017e-04  1.4066658679747331e-04  1.4250719042767544e-04  1.4437187811224068e-04 
 1.4626096498782581e-04  1.4817477031460919e-04  1.5011361753024605e-04  1.5207783430453044e-04 
 1.5406775259477223e-04  1.5608370870189868e-04  1.5812604332729008e-04  1.6019510163035915e-04 
 1.6229123328688350e-04  1.6441479254810233e-04  1.6656613830058479e-04  1.6874563412688356e-04 
 1.7095364836698066e-04  1.7319055418053809e-04  1.7545672960996226e-04  1.7775255764429447e-04 
 1.8007842628393707e-04  1.8243472860622555e-04  1.8482186283186073e-04  1.8724023239220848e-04 
 1.8969024599748032e-04  1.9217231770580690e-04  1.9468686699321448e-04  1.9723431882451748e-04 
 1.9981510372513858e-04  2.0242965785386850e-04  2.0507842307657793e-04  2.0776184704089374e-04 
 2.1048038325185295e-04  2.1323449114854525e-04  2.1602463618176034e-04  2.1885128989264965e-04 
 2.2171492999241828e-04  2.2461604044305843e-04  2.2755511153914137e-04  2.3053263999067762e-04 
 2.3354912900706224e-04  2.3660508838211857e-04  2.3970103458025447e-04  2.4283749082374610e-04 
 2.4601498718116366e-04  2.4923406065695432e-04  2.5249525528219717e-04  2.5579912220654590e-04 
 2.5914621979137409e-04  2.6253711370414015e-04  2.6597237701398617e-04  2.6945259028858726e-04 
 2.7297834169227045e-04  2.7655022708541441e-04  2.8016885012515242e-04  2.8383482236739028e-04 
 2.8754876337016248e-04  2.9131130079833821e-04  2.9512307052969786e-04  2.9898471676239859e-04 
 3.0289689212384467e-04  3.0686025778098357e-04  3.1087548355204460e-04  3.1494324801973949e-04 
 3.1906423864594527e-04  3.2323915188788596e-04  3.2746869331583614e-04  3.3175357773236375e-04 
 3.3609452929313417e-04  3.4049228162929228e-04  3.4494757797145034e-04  3.4946117127529415e-04 
 3.5403382434883503e-04  3.5866630998132549e-04  3.6335941107386332e-04  3.6811392077170318e-04 
 3.7293064259830020e-04  3.7781039059110743e-04  3.8275398943914970e-04  3.8776227462239871e-04 
 3.9283609255297074e-04  3.9797630071817223e-04  4.0318376782541701e-04  4.0845937394904058e-04 
 4.1380401067903441e-04  4.1921858127172656e-04  4.2470400080243470e-04  4.3026119632011482e-04 
 4.3589110700403616e-04  4.4159468432250438e-04  4.4737289219366132e-04  4.5322670714838953e-04 
 4.5915711849534913e-04  4.6516512848817303e-04  4.7125175249484926e-04  4.7741801916932212e-04 
 4.8366497062533555e-04  4.8999366261255389e-04  4.9640516469498627e-04  5.0290056043174455e-04 
 5.0948094756016757e-04  5.1614743818134223e-04  5.2290115894805035e-04  5.2974325125517590e-04 
 5.3667487143260414e-04  5.4369719094064242e-04  5.5081139656800143e-04  5.5801869063236485e-04 
 5.6532029118358399e-04  5.7271743220952982e-04  5.8021136384464199e-04  5.8780335258120297e-04 
 5.9549468148337929e-04  6.0328665040406131e-04  6.1118057620454188e-04  6.1917779297706991e-04 
 6.2727965227031416e-04  6.3548752331777866e-04  6.4380279326920538e-04  6.5222686742500747e-04 
 6.6076116947376754e-04  6.6940714173284422e-04  6.7816624539212753e-04  6.8703996076098332e-04 
 6.9602978751842918e-04  7.0513724496658390e-04  7.1436387228743313e-04  7.2371122880295383e-04 
 7.3318089423864466e-04  7.4277446899050374e-04  7.5249357439549701e-04  7.6233985300557102e-04 
 7.7231496886524516e-04  7.8242060779284202e-04  7.9265847766539271e-04  8.0303030870727279e-04 
 8.1353785378261408e-04  8.2418288869154312e-04  8.3496721247029628e-04  8.4589264769525962e-04 
 8.5696104079099032e-04  8.6817426234226443e-04  8.7953420741021277e-04  8.9104279585259019e-04 
 9.0270197264823528e-04  9.1451370822577538e-04  9.2647999879663678e-04  9.3860286669240683e-04 
 9.5088436070661349e-04  9.6332655644097676e-04  9.7593155665618857e-04  9.8870149162728666e-04 
 1.0016385195036751e-03  1.0147448266738567e-03  1.0280226281349366e-03  1.0414741678669646e-03 
 1.0551017192121715e-03  1.0689075852591688e-03  1.0828940992321796e-03  1.0970636248853523e-03 
 1.1114185569022488e-03  1.1259613213005452e-03  1.1406943758420385e-03  1.1556202104480117e-03 
 1.1707413476200388e-03  1.1860603428662908e-03  1.2015797851334259e-03  1.2173022972441253e-03 
 1.2332305363403555e-03  1.2493671943324353e-03  1.2657149983539718e-03  1.2822767112227551e-03 
 1.2990551319076772e-03  1.3160530960017684e-03  1.3332734762014173e-03  1.3507191827918646e-03 
 1.3683931641390464e-03  1.3862984071878752e-03  1.4044379379670431e-03  1.4228148221004256e-03 
 1.4414321653251801e-03  1.4602931140166226e-03  1.4794008557199735e-03  1.4987586196890577e-03 
 1.5183696774320593e-03  1.5382373432644141e-03  1.5583649748689341e-03  1.5787559738632663e-03 
 1.5994137863747731e-03  1.6203419036229371e-03  1.6415438625093839e-03  1.6630232462156291e-03 
 1.6847836848086399e-03  1.7068288558543313e-03  1.7291624850390799e-03  1.7517883467993737e-03 
 1.7747102649597029e-03  1.7979321133787924e-03  1.8214578166042949e-03  1.8452913505360496e-03 
 1.8694367430980184e-03  1.8938980749190091e-03  1.9186794800223222e-03  1.9437851465244019e-03 
 1.9692193173426404e-03  1.9949862909124428e-03  2.0210904219136695e-03  2.0475361220065901e-03 
 2.0743278605774643e-03  2.1014701654938788e-03  2.1289676238699620e-03  2.1568248828416287e-03 
 2.1850466503519472e-03  2.2136376959467972e-03  2.2426028515809345e-03  2.2719470124346005e-03 
 2.3016751377408218e-03  2.3317922516235307e-03  2.3623034439466568e-03  2.3932138711743193e-03 
 2.4245287572422906e-03  2.4562533944408487e-03  2.4883931443091872e-03  2.5209534385415315e-03 
 2.5539397799051022e-03  2.5873577431701003e-03  2.6212129760518556e-03  2.6555112001653072e-03 
 2.6902582119919570e-03  2.7254598838595094e-03  2.7611221649342919e-03  2.7972510822266857e-03 
 2.8338527416097042e-03  2.8709333288508983e-03  2.9084991106577674e-03  2.9465564357368471e-03 
 2.9851117358666579e-03  3.0241715269846829e-03  3.0637424102885886e-03  3.1038310733518359e-03 
 3.1444442912538992e-03  3.1855889277252656e-03  3.2272719363074269e-03  3.2695003615280435e-03 
 3.3122813400914856e-03  3.3556221020849563e-03  3.3995299722003815e-03  3.4440123709723199e-03 
 3.4890768160320330e-03  3.5347309233779976e-03  3.5809824086630144e-03  3.6278390884981792e-03 
 3.6753088817739082e-03  3.7233998109982482e-03  3.7721200036527013e-03  3.8214776935657788e-03 
 3.8714812223045571e-03  3.9221390405844037e-03  3.9734597096971790e-03  4.0254519029581121e-03 
 4.0781244071716096e-03  4.1314861241162513e-03  4.1855460720492035e-03  4.2403133872303406e-03 
 4.2957973254662716e-03  4.3520072636746210e-03  4.4089527014687293e-03  4.4666432627631196e-03 
 4.5250886973999590e-03  4.5842988827968084e-03  4.6442838256159254e-03  4.7050536634554172e-03 
 4.7666186665625190e-03  4.8289892395692790e-03  4.8921759232509882e-03  4.9561893963075794e-03 
 5.0210404771683552e-03  5.0867401258203352e-03  5.1532994456605138e-03  5.2207296853723599e-03 
 5.2890422408268739e-03  5.3582486570085252e-03  5.4283606299663570e-03  5.4993900087906772e-03 
 5.5713487976155615e-03  5.6442491576475925e-03  5.7181034092211244e-03  5.7929240338804562e-03 
 5.8687236764892311e-03  5.9455151473674648e-03  6.0233114244565081e-03  6.1021256555123431e-03 
 6.1819711603276102e-03  6.2628614329826643e-03  6.3448101441261054e-03  6.4278311432851669e-03 
 6.5119384612063024e-03  6.5971463122264261e-03  6.6834690966751627e-03  6.7709214033085455e-03 
 6.8595180117745303e-03  6.9492738951108211e-03  7.0402042222753288e-03  7.1323243607097700e-03 
 7.2256498789367929e-03  7.3201965491910999e-03  7.4159803500850000e-03  7.5130174693088117e-03 
 7.6113243063666517e-03  7.7109174753479497e-03  7.8118138077353117e-03  7.9140303552490531e-03 
 8.0175843927289894e-03  8.1224934210539241e-03  8.2287751700993363e-03  8.3364476017337760e-03 
 8.4455289128544594e-03  8.5560375384626016e-03  8.6679921547789321e-03  8.7814116824000803e-03 
 8.8963152894961598e-03  9.0127223950502589e-03  9.1306526721402752e-03  9.2501260512637146e-03 
 9.3711627237060176e-03  9.4937831449528956e-03  9.6180080381474027e-03  9.7438583975921408e-03 
 9.8713554922973939e-03  1.0000520869575629e-02  1.0131376358683030e-02  1.0263944074508700e-02 
 1.0398246421312147e-02  1.0534306096509625e-02  1.0672146094510081e-02  1.0811789710601259e-02 
 1.0953260544886623e-02  1.1096582506273895e-02  1.1241779816515666e-02  1.1388877014302953e-02 
 1.1537898959412285e-02  1.1688870836907072e-02  1.1841818161393944e-02  1.1996766781334762e-02 
 1.2153742883415100e-02  1.2312772996969810e-02  1.2473883998466601e-02  1.2637103116048180e-02 
 1.2802457934133900e-02  1.2969976398081577e-02  1.3139686818910330e-02  1.3311617878085203e-02 
 1.3485798632364409e-02  1.3662258518710006e-02  1.3841027359262747e-02  1.4022135366382183e-02 
 1.4205613147752589e-02  1.4391491711555687e-02  1.4579802471711185e-02  1.4770577253185743e-02 
 1.4963848297371490e-02  1.5159648267534900e-02  1.5358010254336970e-02  1.5558967781425554e-02 
 1.5762554811101049e-02  1.5968805750056027e-02  1.6177755455190065e-02  1.6389439239500658e-02 
 1.6603892878051175e-02  1.6821152614016951e-02  1.7041255164810469e-02  1.7264237728286690e-02 
 1.7490137989029535e-02  1.7718994124720742e-02  1.7950844812591946e-02  1.8185729235961234e-02 
 1.8423687090855182e-02  1.8664758592717649e-02  1.8908984483206215e-02  1.9156406037077658e-02 
 1.9407065069163485e-02  1.9661003941436671e-02  1.9918265570171057e-02  2.0178893433194192e-02 
 2.0442931577235257e-02  2.0710424625369036e-02  2.0981417784557314e-02  2.1255956853288988e-02 
 2.1534088229320094e-02  2.1815858917515193e-02  2.2101316537791189e-02  2.2390509333165338e-02 
 2.2683486177908368e-02  2.2980296585804368e-02  2.3280990718518690e-02  2.3585619394075455e-02 
 2.3894234095445874e-02  2.4206886979249009e-02  2.4523630884566390e-02  2.4844519341871860e-02 
 2.5169606582078466e-02  2.5498947545703542e-02  2.5832597892153794e-02  2.6170614009131912e-02 
 2.6513053022166166e-02  2.6859972804264793e-02  2.7211431985696671e-02  2.7567489963900009e-02 
 2.7928206913520503e-02  2.8293643796581225e-02  2.8663862372785173e-02  2.9038925209952892e-02 
 2.9418895694596540e-02  2.9803838042632393e-02  3.0193817310233465e-02  3.0588899404824177e-02 
 3.0989151096218873e-02  3.1394640027905985e-02  3.1805434728480075e-02  3.2221604623223307e-02 
 3.2643220045838389e-02  3.3070352250335250e-02  3.3503073423073043e-02  3.3941456694959904e-02 
 3.4385576153812158e-02  3.4835506856875434e-02  3.5291324843509365e-02  3.5753107148038622e-02 
 3.6220931812771751e-02  3.6694877901190553e-02  3.7175025511312021e-02  3.7661455789225064e-02 
 3.8154250942804377e-02  3.8653494255603847e-02  3.9159270100931606e-02  3.9671663956109229e-02 
 4.0190762416917832e-02  4.0716653212232799e-02  4.1249425218850201e-02  4.1789168476507231e-02 
 4.2335974203099036e-02  4.2889934810094885e-02  4.3451143918155841e-02  4.4019696372956919e-02 
 4.4595688261216127e-02  4.5179216926933538e-02  4.5770380987842495e-02  4.6369280352076339e-02 
 4.6976016235053063e-02  4.7590691176580976e-02  4.8213409058188168e-02  4.8844275120678772e-02 
 4.9483395981918921e-02  5.0130879654855250e-02  5.0786835565769572e-02  5.1451374572772102e-02 
 5.2124608984536684e-02  5.2806652579281251e-02  5.3497620623996670e-02  5.4197629893927048e-02 
 5.4906798692305102e-02  5.5625246870345715e-02  5.6353095847500805e-02  5.7090468631979967e-02 
 5.7837489841538768e-02  5.8594285724539605e-02  5.9360984181287949e-02  6.0137714785647826e-02 
 6.0924608806940055e-02  6.1721799232127117e-02  6.2529420788288326e-02  6.3347609965388768e-02 
 6.4176505039346812e-02  6.5016246095402769e-02  6.5866975051793814e-02  6.6728835683738386e-02 
 6.7601973647734598e-02  6.8486536506176518e-02  6.9382673752292567e-02  7.0290536835410269e-02 
 7.1210279186551387e-02  7.2142056244362401e-02  7.3086025481383765e-02  7.4042346430663292e-02 
 7.5011180712717548e-02  7.5992692062846118e-02  7.6987046358803268e-02  7.7994411648831710e-02 
 7.9014958180063002e-02  8.0048858427289996e-02  8.1096287122115224e-02  8.2157421282481075e-02 
 8.3232440242586442e-02  8.4321525683193926e-02  8.5424861662335247e-02  8.6542634646416913e-02 
 8.7675033541733713e-02  8.8822249726394131e-02  8.9984477082663814e-02  9.1161912029732256e-02 
 9.2354753556907893e-02  9.3563203257247887e-02  9.4787465361627812e-02  9.6027746773257205e-02 
 9.7284257102646612e-02  9.8557208703032292e-02  9.9846816706264510e-02  1.0115329905916515e-01 
 1.0247687656036143e-01  1.0381777289760127e-01  1.0517621468555735e-01  1.0655243150412466e-01 
 1.0794665593722130e-01  1.0935912361209479e-01  1.1079007323914401e-01  1.1223974665226172e-01 
 1.1370838884970513e-01  1.1519624803550112e-01  1.1670357566139332e-01  1.1823062646933810e-01 
 1.1977765853455655e-01  1.2134493330914967e-01  1.2293271566628478e-01  1.2454127394495926e-01 
 1.2617087999535068e-01  1.2782180922476022e-01  1.2949434064415702e-01  1.3118875691533174e-01 
 1.3290534439866736e-01  1.3464439320153362e-01  1.3640619722731770e-01  1.3819105422509309e-01 
 1.3999926583994060e-01  1.4183113766392688e-01  1.4368697928775021e-01  1.4556710435306205e-01 
 1.4747183060547331e-01  1.4940147994825417e-01  1.5135637849673625e-01  1.5333685663342711e-01 
 1.5534324906384558e-01  1.5737589487308773e-01  1.5943513758313338e-01  1.6152132521090157e-01 
 1.6363481032706678e-01  1.6577595011564397e-01  1.6794510643435381e-01  1.7014264587577638e-01 
 1.7236893982930784e-01  1.7462436454392524e-01  1.7690930119177348e-01  1.7922413593258432e-01 
 1.8156925997893855e-01  1.8394506966238167e-01  1.8635196650040475e-01  1.8879035726430216e-01 
 1.9126065404791656e-01  1.9376327433728385e-01  1.9629864108118947e-01  1.9886718276264762e-01 
 2.0146933347131579e-01  2.0410553297685710e-01  2.0677622680326238e-01  2.0948186630414486e-01 
 2.1222290873902022e-01  2.1499981735058313e-01  2.1781306144299870e-01  2.2066311646121431e-01 
 2.2355046407131138e-01  2.2647559224190825e-01  2.2943899532662781e-01  2.3244117414764465e-01 
 2.3548263608032483e-01  2.3856389513897405e-01  2.4168547206370689e-01  2.4484789440845331e-01 
 2.4805169663011647e-01  2.5129742017889717e-01  2.5458561358980025e-01  2.5791683257533837e-01 
 2.6129164011944878e-01  2.6471060657263867e-01  2.6817430974837675e-01  2.7168333502074260e-01 
 2.7523827542335960e-01  2.7883973174961690e-01  2.8248831265420538e-01  2.8618463475598188e-01 
 2.8992932274217931e-01  2.9372300947398006e-01  2.9756633609347094e-01  3.0145995213199833e-01 
 3.0540451561993998e-01  3.0940069319791363e-01  3.1344916022944136e-01  3.1755060091508708e-01 
 3.2170570840808865e-01  3.2591518493150190e-01  3.3017974189687826e-01  3.3450010002449487e-01 
 3.3887698946515887e-01  3.4331114992360184e-01  3.4780333078349573e-01  3.5235429123409762e-01 
 3.5696480039855533e-01  3.6163563746389110e-01  3.6636759181268613e-01  3.7116146315648785e-01 
 3.7601806167096308e-01  3.8093820813282014e-01  3.8592273405852140e-01  3.9097248184481204e-01 
 3.9608830491108676e-01  4.0127106784361993e-01  4.0652164654168266e-01  4.1184092836557173e-01 
 4.1722981228657585e-01  4.2268920903890372e-01  4.2822004127360114e-01  4.3382324371447822e-01 
 4.3949976331608431e-01  4.4525055942374270e-01  4.5107660393568311e-01  4.5697888146729471e-01 
 4.6295838951752816e-01  4.6901613863747582e-01  4.7515315260115704e-01  4.8137046857853816e-01 
 4.8766913731081746e-01  4.9405022328800208e-01  5.0051480492880951e-01  5.0706397476292375e-01 
 5.1369883961563423e-01  5.2042052079489265e-01  5.2723015428081654e-01  5.3412889091767279e-01 
 5.4111789660837339e-01  5.4819835251151272e-01  5.5537145524099185e-01  5.6263841706824425e-01 
 5.7000046612711519e-01  5.7745884662141778e-01  5.8501481903520758e-01  5.9266966034580570e-01 
 6.0042466423961371e-01  6.0828114133074696e-01  6.1624041938253316e-01  6.2430384353190671e-01 
 6.3247277651674072e-01  6.4074859890615232e-01  6.4913270933382261e-01  6.5762652473436933e-01 
 6.6623148058281079e-01  6.7494903113716598e-01  6.8378064968422880e-01  6.9272782878855099e-01 
 7.0179208054469766e-01  7.1097493683278945e-01  7.2027794957739522e-01  7.2970269100981067e-01 
 7.3925075393376971e-01  7.4892375199463201e-01  7.5872331995209219e-01  7.6865111395645935e-01 
 7.7870881182854890e-01  7.8889811334324000e-01  7.9922074051673997e-01  8.0967843789760996e-01 
 8.2027297286159750e-01  8.3100613591032779e-01  8.4187974097390195e-01  8.5289562571745592e-01 
 8.6405565185173161e-01  8.7536170544770497e-01  8.8681569725534448e-01  8.9841956302652715e-01 
 9.1017526384218672e-01  9.2208478644374114e-01  9.3415014356885528e-01  9.4637337429160040e-01 
 9.5875654436706093e-01  9.7130174658045254e-01  9.8401110110080892e-01  9.9688675583929265e-01 
 1.0099308868121999e+00  1.0231456985087122e+00  1.0365334242634576e+00  1.0500963266339538e+00 
 1.0638366977829816e+00  1.0777568598659693e+00  1.0918591654234420e+00  1.1061459977785992e+00 
 1.1206197714401158e+00  1.1352829325101894e+00  1.1501379590979404e+00  1.1651873617382187e+00 
 1.1804336838158889e+00  1.1958795019956705e+00  1.2115274266575984e+00  1.2273801023381841e+00 
 1.2434402081773481e+00  1.2597104583712020e+00  1.2761936026307532e+00  1.2928924266466135e+00 
 1.3098097525597863e+00  1.3269484394386151e+00  1.3443113837619749e+00  1.3619015199087821e+00 
 1.3797218206539130e+00  1.3977752976706039e+00  1.4160650020394414e+00  1.4345940247639957e+00 
 1.4533654972932069e+00  1.4723825920506115e+00  1.4916485229704854e+00  1.5111665460410093e+00 
 1.5309399598545366e+00  1.5509721061650643e+00  1.5712663704529981e+00  1.5918261824973043e+00 
 1.6126550169551528e+00  1.6337563939491417e+00  1.6551338796622062e+00  1.6767910869403122e+00 
 1.6987316759030364e+00  1.7209593545621338e+00  1.7434778794482049e+00  1.7662910562455461e+00 
 1.7894027404353356e+00  1.8128168379472112e+00  1.8365373058193786e+00  1.8605681528673663e+00 
 1.8849134403615206e+00  1.9095772827133726e+00  1.9345638481709815e+00  1.9598773595233809e+00 
 1.9855220948142371e+00  2.0115023880648515e+00  2.0378226300066196e+00  2.0644872688230729e+00 
 2.0915008109016378e+00  2.1188678215952184e+00  2.1465929259937595e+00  2.1746808097058925e+00 
 2.2031362196508200e+00  2.2319639648605420e+00  2.2611689172926153e+00  2.2907560126535129e+00 
 2.3207302512327690e+00  2.3510966987480462e+00  2.3818604872012492e+00  2.4130268157458477e+00 
 2.4446009515655445e+00  2.4765882307644431e+00  2.5089940592688600e+00  2.5418239137409424e+00 
 2.5750833425042323e+00  2.6087779664813540e+00  2.6429134801439549e+00  2.6774956524750899e+00 
 2.7125303279441915e+00  2.7480234274948012e+00  2.7839809495452235e+00  2.8204089710022586e+00 
 2.8573136482882386e+00  2.8947012183814613e+00  2.9325779998702610e+00  2.9709503940208575e+00 
 3.0098248858591927e+00  3.0492080452669126e+00  3.0891065280916927e+00  3.1295270772720931e+00 
 3.1704765239771291e+00  3.2119617887607590e+00  3.2539898827314682e+00  3.2965679087371700e+00 
 3.3397030625655986e+00  3.3834026341604178e+00  3.4276740088532356e+00  3.4725246686117455e+00 
 3.5179621933042013e+00  3.5639942619804095e+00  3.6106286541695440e+00  3.6578732511948782e+00 
 3.7057360375057566e+00  3.7542251020269837e+00  3.8033486395258724e+00  3.8531149519971786e+00 
 3.9035324500661588e+00  3.9546096544099849e+00  4.0063551971977605e+00  4.0587778235493746e+00 
 4.1118863930134522e+00  4.1656898810646368e+00  4.2201973806204673e+00  4.2754181035780991e+00 
 4.3313613823711439e+00  4.3880366715468702e+00  4.4454535493640472e+00  4.5036217194116679e+00 
 4.5625510122489255e+00  4.6222513870665640e+00  4.6827329333700245e+00  4.7440058726845802e+00 
 4.8060805602828127e+00  4.8689674869346700e+00  4.9326772806804344e+00  4.9972207086268812e+00 
 5.0626086787669546e+00  5.1288522418232381e+00  5.1959625931155538e+00  5.2639510744530007e+00 
 5.3328291760507431e+00  5.4026085384718874e+00  5.4733009545947633e+00  5.5449183716059522e+00 
 5.6174728930193956e+00  5.6909767807218765e+00  5.7654424570453751e+00  5.8408825068664258e+00 
 5.9173096797330027e+00  5.9947368920192234e+00  6.0731772291082482e+00  6.1526439476037424e+00 
 6.2331504775702697e+00  6.3147104248030068e+00  6.3973375731271567e+00  6.4810458867274487e+00 
 6.5658495125081142e+00  6.6517627824837495e+00  6.7388002162014633e+00  6.8269765231947135e+00 
 6.9163066054692450e+00  7.0068055600215828e+00  7.0984886813904504e+00  7.1913714642415485e+00 
 7.2854696059862665e+00  7.3807990094345168e+00  7.4773757854823772e+00  7.5752162558348628e+00 
 7.6743369557643311e+00  7.7747546369049889e+00  7.8764862700839506e+00  7.9795490481893552e+00 
 8.0839603890760046e+00  8.1897379385090137e+00  8.2968995731460016e+00  8.4054634035582723e+00 
 8.5154477772915609e+00  8.6268712819668014e+00  8.7397527484214841e+00  8.8541112538921070e+00 
 8.9699661252382921e+00  9.0873369422090153e+00  9.2062435407517142e+00  9.3267060163645485e+00 
 9.4487447274926151e+00  9.5723802989685485e+00  9.6976336254981987e+00  9.8245258751918687e+00 
 9.9530784931417671e+00  1.0083313205046297e+01  1.0215252020881735e+01  1.0348917238621995e+01 
 1.0484331448007007e+01  1.0621517534360452e+01  1.0760498682457445e+01  1.0901298380442801e+01 
 1.1043940423800597e+01  1.1188448919375661e+01  1.1334848289447713e+01  1.1483163275858693e+01 
 1.1633418944194332e+01  1.1785640688020207e+01  1.1939854233173319e+01  1.2096085642109845e+01 
 1.2254361318309746e+01  1.2414708010739002e+01  1.2577152818370282e+01  1.2741723194762704e+01 
 1.2908446952701579e+01  1.3077352268898810e+01  1.3248467688754848e+01  1.3421822131182923e+01 
 1.3597444893496400e+01  1.3775365656360114e+01  1.3955614488806455e+01  1.4138221853317118e+01 
 1.4323218610971351e+01  1.4510636026661460e+01  1.4700505774376792e+01  1.4892859942556619e+01 
 1.5087731039513187e+01  1.5285151998925690e+01  1.5485156185406153e+01  1.5687777400138119e+01 
 1.5893049886589134e+01  1.6101008336297983e+01  1.6311687894737620e+01  1.6525124167254866e+01 
 1.6741353225087774e+01  1.6960411611461758e+01  1.7182336347765499e+01  1.7407164939807636e+01 
 1.7634935384155337e+01  1.7865686174555847e+01  1.8099456308441887e+01  1.8336285293522508e+01 
 1.8576213154459868e+01  1.8819280439633513e+01  1.9065528227993170e+01  1.9314998136001151e+01 
 1.9567732324665688e+01  1.9823773506666186e+01  2.0083164953571814e+01  2.0345950503154462e+01 
 2.0612174566797474e+01  2.0881882137001252e+01  2.1155118794987079e+01  2.1431930718400487e+01 
 2.1712364689115379e+01  2.1996468101140252e+01  2.2284288968627944e+01  2.2575875933990140e+01 
 2.2871278276117909e+01  2.3170545918710189e+01  2.3473729438710880e+01  2.3780880074856459e+01 
 2.4092049736335479e+01  2.4407291011561352e+01  2.4726657177059895e+01  2.5050202206473188e+01 
 2.5377980779681288e+01  2.5710048292043204e+01  2.6046460863758874e+01  2.6387275349353615e+01 
 2.6732549347286668e+01  2.7082341209685463e+01  2.7436710052207289e+01  2.7795715764029957e+01 
 2.8159419017973246e+01  2.8527881280752762e+01  2.8901164823367786e+01  2.9279332731625541e+01 
 2.9662448916802575e+01  3.0050578126446045e+01  3.0443785955316169e+01  3.0842138856471898e+01 
 3.1245704152501649e+01  3.1654550046900969e+01  3.2068745635599107e+01  3.2488360918636381e+01 
 3.2913466811994340e+01  3.3344135159580759e+01  3.3780438745371420e+01  3.4222451305710756e+01 
 3.4670247541773513e+01  3.5123903132189362e+01  3.5583494745832844e+01  3.6049100054780595e+01 
 3.6520797747437875e+01  3.6998667541837513e+01  3.7482790199112131e+01  3.7973247537143067e+01 
 3.8470122444387783e+01  3.8973498893888205e+01  3.9483461957462403e+01  4.0000097820081862e+01 
 4.0523493794437030e+01  4.1053738335693268e+01  4.1590921056440123e+01  4.2135132741835925e+01 