  <PP_INFO>

############################################################
#    Opium Parameter File                                  #
############################################################
#-----------------------------------------------------------
#Command line   : ./opium-v3.8-src_rob_heavy_elements k k.log ae ps nl tc rpt upf 
 
#Opium version  : 3.8 
#Compile Host   : vagvlan567.0862.wlan.wireless-pennnet.upenn.edu 
#Compile OS     : Darwin 15.5.0 i386 
#Compile Date   : Mon Jun 20 11:09:16 EDT 2016 
#-----------------------------------------------------------
#Execution Host : modv-ve507-0303.apn.wlan.upenn.edu 
#Execution Date : Tue Apr 17 16:41:51 2018
 
#-----------------------------------------------------------
############################################################
[Atom]
K
8
100   2.00   -
200   2.00   -
210   6.00   -
300   2.00   -
310   6.00   -
320   0.10   -
400   0.00   -  # orbitals must be in s,p,d,s,p,d order AND
410   0.00   -             # second l can't have electrons

[Pseudo]
5 1.35 1.40 1.31  1.35 1.37
opt             # no one uses kerker, use opt for real potentials

[Optinfo]
7.07     10
7.07     10
7.07     10
7.07     10
7.07     10
conmax             # when "NEW" minimization breaks, use conmax

[Configs]
3
#
300 2.00 -
310 6.00 -
320 0.0 -
400 0.96  -
410 0.00 -
#
300 2.0  -
310 6.00 -
320 0.10 -
400 0.90 -
410 0.00 -
#
300 2.0  -
310 6.00 -
320 0.20 -
400 0.80 -
410 0.00 -

[XC]
gga
############################################################
  </PP_INFO>



<PP_HEADER>
   0         Version Number
   K        Element
   NC        Norm - Conserving pseudopotential
    F      Nonlinear Core Correction
SLA  PW   PBE  PBE     PBE  Exchange-Correlation functional
 9          Z valence
 0          Total energy
 0.000000   0.000000     Suggested cutoff for wfc and rho
 2           Max angular momentum component
 1152           Number of points in mesh
 3  2     Number of Wavefuncitons, Number of Projectors
 Wavefunctions         nl  l   occ
                       S  0  2.000000
                       P  1  6.000000
                       D  2  0.100000
</PP_HEADER>
<PP_MESH>
  <PP_R>
 3.7475617678431551e-05  3.7965981164980744e-05  3.8462760992709527e-05  3.8966041118591170e-05 
 3.9475906598164804e-05  3.9992443599910032e-05  4.0515739419809501e-05  4.1045882496102295e-05 
 4.1582962424230103e-05  4.2127069971979076e-05  4.2678297094819815e-05  4.3236736951448058e-05 
 4.3802483919528715e-05  4.4375633611645913e-05  4.4956282891461830e-05  4.5544529890086660e-05 
 4.6140474022663300e-05  4.6744216005168564e-05  4.7355857871434463e-05  4.7975502990392149e-05 
 4.8603256083541554e-05  4.9239223242649526e-05  4.9883511947679626e-05  5.0536231084956507e-05 
 5.1197490965567820e-05  5.1867403344007299e-05  5.2546081437061353e-05  5.3233639942943021e-05 
 5.3930195060676270e-05  5.4635864509733841e-05  5.5350767549932213e-05  5.6075025001586699e-05 
 5.6808759265930485e-05  5.7552094345800514e-05  5.8305155866594532e-05  5.9068071097501914e-05 
 5.9840968973012494e-05  6.0623980114706807e-05  6.1417236853331448e-05  6.2220873251163272e-05 
 6.3035025124666232e-05  6.3859830067444778e-05  6.4695427473497236e-05  6.5541958560774106e-05 
 6.6399566395043929e-05  6.7268395914071920e-05  6.8148593952114677e-05  6.9040309264735569e-05 
 6.9943692553944833e-05  7.0858896493668531e-05  7.1786075755550630e-05  7.2725387035093203e-05 
 7.3676989078138176e-05  7.4641042707695716e-05  7.5617710851123764e-05  7.6607158567663103e-05 
 7.7609553076332842e-05  7.8625063784190712e-05  7.9653862314963376e-05  8.0696122538051240e-05 
 8.1752020597912535e-05  8.2821734943832597e-05  8.3905446360081902e-05  8.5003337996469150e-05 
 8.6115595399293966e-05  8.7242406542704722e-05  8.8383961860466544e-05  8.9540454278145252e-05 
 9.0712079245711835e-05  9.1899034770574463e-05  9.3101521451041907e-05  9.4319742510225209e-05 
 9.5553903830382849e-05  9.6804213987715355e-05  9.8070884287615193e-05  9.9354128800377805e-05 
 1.0065416439738015e-04  1.0197121078773227e-04  1.0330549055540897e-04  1.0465722919686651e-04 
 1.0602665515915264e-04  1.0741399987851437e-04  1.0881949781951128e-04  1.1024338651464060e-04 
 1.1168590660448085e-04  1.1314730187836060e-04  1.1462781931555923e-04  1.1612770912704747e-04 
 1.1764722479777338e-04  1.1918662312950189e-04  1.2074616428421497e-04  1.2232611182807964e-04 
 1.2392673277599120e-04  1.2554829763669956e-04  1.2719108045852563e-04  1.2885535887567623e-04 
 1.3054141415516516e-04  1.3224953124434740e-04  1.3397999881907660e-04  1.3573310933249160e-04 
 1.3750915906444173e-04  1.3930844817155883e-04  1.4113128073798450e-04  1.4297796482676112e-04 
 1.4484881253189473e-04  1.4674414003110043e-04  1.4866426763923663e-04  1.5060951986243918e-04 
 1.5258022545296373e-04  1.5457671746474554e-04  1.5659933330968638e-04  1.5864841481467816e-04 
 1.6072430827937222e-04  1.6282736453470485e-04  1.6495793900218888e-04  1.6711639175398001e-04 
 1.6930308757373073e-04  1.7151839601823912e-04  1.7376269147990499e-04  1.7603635325000297e-04 
 1.7833976558278373e-04  1.8067331776041407e-04  1.8303740415876574e-04  1.8543242431406692e-04 
 1.8785878299042434e-04  1.9031689024822919e-04  1.9280716151345861e-04  1.9533001764788350e-04 
 1.9788588502019522e-04  2.0047519557806289e-04  2.0309838692113361e-04  2.0575590237498781e-04 
 2.0844819106606257e-04  2.1117570799755411e-04  2.1393891412631590e-04  2.1673827644076029e-04 
 2.1957426803978128e-04  2.2244736821270899e-04  2.2535806252031092e-04  2.2830684287685290e-04 
 2.3129420763323328e-04  2.3432066166120631e-04  2.3738671643870591e-04  2.4049289013628695e-04 
 2.4363970770469736e-04  2.4682770096359601e-04  2.5005740869143126e-04  2.5332937671649621e-04 
 2.5664415800917469e-04  2.6000231277539462e-04  2.6340440855130446e-04  2.6685102029918721e-04 
 2.7034273050463185e-04  2.7388012927497354e-04  2.7746381443902396e-04  2.8109439164810546e-04 
 2.8477247447840717e-04  2.8849868453468169e-04  2.9227365155529741e-04  2.9609801351866553e-04 
 2.9997241675106022e-04  3.0389751603584922e-04  3.0787397472415378e-04  3.1190246484695652e-04 
 3.1598366722867643e-04  3.2011827160222973e-04  3.2430697672559624e-04  3.2855049049991135e-04 
 3.3284953008910290e-04  3.3720482204109385e-04  3.4161710241058956e-04  3.4608711688347449e-04 
 3.5061562090283346e-04  3.5520337979662444e-04  3.5985116890701918e-04  3.6455977372143976e-04 
 3.6932999000530679e-04  3.7416262393652580e-04  3.7905849224173342e-04  3.8401842233432568e-04 
 3.8904325245429347e-04  3.9413383180988661e-04  3.9929102072113224e-04  4.0451569076523102e-04 
 4.0980872492385565e-04  4.1517101773237681e-04  4.2060347543104189e-04  4.2610701611813206e-04 
 4.3168256990512192e-04  4.3733107907387197e-04  4.4305349823587568e-04  4.4885079449359189e-04 
 4.5472394760388553e-04  4.6067395014361107e-04  4.6670180767735959e-04  4.7280853892740088e-04 
 4.7899517594585106e-04  4.8526276428909092e-04  4.9161236319446788e-04  4.9804504575930988e-04 
 5.0456189912228037e-04  5.1116402464710883e-04  5.1785253810872247e-04  5.2462856988181553e-04 
 5.3149326513188537e-04  5.3844778400876845e-04  5.4549330184270630e-04  5.5263100934298238e-04 
 5.5986211279915278e-04  5.6718783428491256e-04  5.7460941186462803e-04  5.8212809980257452e-04 
 5.8974516877490901e-04  5.9746190608441678e-04  6.0527961587807013e-04  6.1319961936743086e-04 
 6.2122325505193905e-04  6.2935187894512263e-04  6.3758686480376613e-04  6.4592960436007983e-04 
 6.5438150755690546e-04  6.6294400278599946e-04  6.7161853712943513e-04  6.8040657660416344e-04 
 6.8930960640977074e-04  6.9832913117948462e-04  7.0746667523445897e-04  7.1672378284138758e-04 
 7.2610201847348778e-04  7.3560296707490293e-04  7.4522823432856004e-04  7.5497944692753396e-04 
 7.6485825284996274e-04  7.7486632163755972e-04  7.8500534467777045e-04  7.9527703548962019e-04 
 8.0568313001330401e-04  8.1622538690356394e-04  8.2690558782690592e-04  8.3772553776270599e-04 
 8.4868706530825575e-04  8.5979202298780053e-04  8.7104228756561773e-04  8.8243976036319856e-04 
 8.9398636758057269e-04  9.0568406062184286e-04  9.1753481642497300e-04  9.2954063779590037e-04 
 9.4170355374701212e-04  9.5402561984005260e-04  9.6650891853351925e-04  9.7915555953460289e-04 
 9.9196768015573280e-04  1.0049474456757879e-03  1.0180970497060352e-03  1.0314187145608513e-03 
 1.0449146916333050e-03  1.0585872617756426e-03  1.0724387356847603e-03  1.0864714542927173e-03 
 1.1006877891623563e-03  1.1150901428881072e-03  1.1296809495020285e-03  1.1444626748851664e-03 
 1.1594378171842911e-03  1.1746089072340940e-03  1.1899785089849024e-03  1.2055492199359930e-03 
 1.2213236715745775e-03  1.2373045298205258e-03  1.2534944954769181e-03  1.2698963046864846e-03 
 1.2865127293940192e-03  1.3033465778148460e-03  1.3204006949094143e-03  1.3376779628641038e-03 
 1.3551813015783200e-03  1.3729136691579666e-03  1.3908780624153673e-03  1.4090775173757405e-03 
 1.4275151097902911e-03  1.4461939556560208e-03  1.4651172117423376e-03  1.4842880761245594e-03 
 1.5037097887243955e-03  1.5233856318575007e-03  1.5433189307881956e-03  1.5635130542914415e-03 
 1.5839714152221750e-03  1.6046974710920861e-03  1.6256947246539478e-03  1.6469667244935861e-03 
 1.6685170656296040e-03  1.6903493901209449e-03  1.7124673876824118e-03  1.7348747963082357e-03 
 1.7575754029038044e-03  1.7805730439256638e-03  1.8038716060298828e-03  1.8274750267289102e-03 
 1.8513872950570217e-03  1.8756124522444782e-03  1.9001545924005033e-03  1.9250178632051959e-03 
 1.9502064666104999e-03  1.9757246595503400e-03  2.0015767546600603e-03  2.0277671210052646e-03 
 2.0543001848202002e-03  2.0811804302558038e-03  2.1084124001375330e-03  2.1360006967331090e-03 
 2.1639499825303219e-03  2.1922649810249923e-03  2.2209504775192583e-03  2.2500113199303024e-03 
 2.2794524196096595e-03  2.3092787521732478e-03  2.3394953583422600e-03  2.3701073447950599e-03 
 2.4011198850302125e-03  2.4325382202408327e-03  2.4643676602003495e-03  2.4966135841598741e-03 
 2.5292814417573039e-03  2.5623767539383249e-03  2.5959051138894659e-03  2.6298721879833595e-03 
 2.6642837167363750e-03  2.6991455157787695e-03  2.7344634768375581e-03  2.7702435687322201e-03 
 2.8064918383834451e-03  2.8432144118350792e-03  2.8804174952894389e-03  2.9181073761561744e-03 
 2.9562904241148581e-03  2.9949730921914777e-03  3.0341619178490000e-03  3.0738635240922384e-03 
 3.1140846205871403e-03  3.1548320047947447e-03  3.1961125631199644e-03  3.2379332720754083e-03 
 3.2803011994604276e-03  3.3232235055555893e-03  3.3667074443327872e-03  3.4107603646811634e-03 
 3.4553897116491104e-03  3.5006030277024884e-03  3.5464079539993211e-03  3.5928122316811742e-03 
 3.6398237031814219e-03  3.6874503135506395e-03  3.7357001117993365e-03  3.7845812522582577e-03 
 3.8341019959564774e-03  3.8842707120175469e-03  3.9350958790738879e-03  3.9865860866997007e-03 
 4.0387500368626265e-03  4.0915965453943975e-03  4.1451345434807361e-03  4.1993730791707439e-03 
 4.2543213189060501e-03  4.3099885490699439e-03  4.3663841775568200e-03  4.4235177353621202e-03 
 4.4813988781930965e-03  4.5400373881006499e-03  4.5994431751325213e-03  4.6596262790081092e-03 
 4.7205968708152113e-03  4.7823652547289621e-03  4.8449418697532496e-03  4.9083372914849564e-03 
 4.9725622339012419e-03  5.0376275511702347e-03  5.1035442394854165e-03  5.1703234389240014e-03 
 5.2379764353296335e-03  5.3065146622197279e-03  5.3759497027177595e-03  5.4462932915108264e-03 
 5.5175573168328631e-03  5.5897538224737656e-03  5.6628950098148202e-03  5.7369932398907723e-03 
 5.8120610354788641e-03  5.8881110832152191e-03  5.9651562357389111e-03  6.0432095138640987e-03 
 6.1222841087805466e-03  6.2023933842830069e-03  6.2835508790297073e-03  6.3657703088304228e-03 
 6.4490655689644792e-03  6.5334507365290909e-03  6.6189400728184208e-03  6.7055480257337749e-03 
 6.7932892322253371e-03  6.8821785207658246e-03  6.9722309138565723e-03  7.0634616305663466e-03 
 7.1558860891034080e-03  7.2495199094212278e-03  7.3443789158582993e-03  7.4404791398124843e-03 
 7.5378368224503561e-03  7.6364684174520100e-03  7.7363905937917416e-03  7.8376202385551808e-03 
 7.9401744597932308e-03  8.0440705894133692e-03  8.1493261861087830e-03  8.2559590383258358e-03 
 8.3639871672703450e-03  8.4734288299532241e-03  8.5843025222759502e-03  8.6966269821564055e-03 
 8.8104211926956586e-03  8.9257043853861323e-03  9.0424960433617748e-03  9.1608159046907625e-03 
 9.2806839657112710e-03  9.4021204844109089e-03  9.5251459838503697e-03  9.6497812556318781e-03 
 9.7760473634129937e-03  9.9039656464664644e-03  1.0033557723286582e-02  1.0164845495242774e-02 
 1.0297851150280981e-02  1.0432597166673463e-02  1.0569106316817706e-02  1.0707401671084985e-02 
 1.0847506601719339e-02  1.0989444786787490e-02  1.1133240214180549e-02  1.1278917185667994e-02 
 1.1426500321004731e-02  1.1576014562091893e-02  1.1727485177192083e-02  1.1880937765199769e-02 
 1.2036398259967555e-02  1.2193892934689077e-02  1.2353448406339196e-02  1.2515091640172390e-02 
 1.2678849954279901e-02  1.2844751024206574e-02  1.3012822887628089e-02  1.3183093949089389e-02 
 1.3355592984805128e-02  1.3530349147522897e-02  1.3707391971450152e-02  1.3886751377245488e-02 
 1.4068457677075392e-02  1.4252541579737011e-02  1.4439034195848034e-02  1.4627967043104451e-02 
 1.4819372051607131e-02  1.5013281569258071e-02  1.5209728367227279e-02  1.5408745645491188e-02 
 1.5610367038443476e-02  1.5814626620579444e-02  1.6021558912254631e-02  1.6231198885518851e-02 
 1.6443581970026544e-02  1.6658744059024490e-02  1.6876721515417831e-02  1.7097551177915511e-02 
 1.7321270367256097e-02  1.7547916892515034e-02  1.7777529057494548e-02  1.8010145667197015e-02 
 1.8245806034383128e-02  1.8484549986215834e-02  1.8726417870991229e-02  1.8971450564957505e-02 
 1.9219689479223152e-02  1.9471176566755521e-02  1.9725954329470937e-02  1.9984065825417719e-02 
 2.0245554676053001e-02  2.0510465073614915e-02  2.0778841788591164e-02  2.1050730177285336e-02 
 2.1326176189482245e-02  2.1605226376213538e-02  2.1887927897624958e-02  2.2174328530946447e-02 
 2.2464476678566710e-02  2.2758421376213280e-02  2.3056212301239675e-02  2.3357899781020996e-02 
 2.3663534801459364e-02  2.3973169015600686e-02  2.4286854752364105e-02  2.4604645025385761e-02 
 2.4926593541978119e-02  2.5252754712206775e-02  2.5583183658085793e-02  2.5917936222893484e-02 
 2.6257068980610036e-02  2.6600639245478671e-02  2.6948705081691893e-02  2.7301325313204439e-02 
 2.7658559533674746e-02  2.8020468116536263e-02  2.8387112225200895e-02  2.8758553823395667e-02 
 2.9134855685634727e-02  2.9516081407828437e-02  2.9902295418031199e-02  3.0293562987329964e-02 
 3.0689950240875199e-02  3.1091524169056216e-02  3.1498352638822613e-02  3.1910504405154104e-02 
 3.2328049122680141e-02  3.2751057357451804e-02  3.3179600598867556e-02  3.3613751271755185e-02 
 3.4053582748611713e-02  3.4499169362003576e-02  3.4950586417129018e-02  3.5407910204544688e-02 
 3.5871218013059189e-02  3.6340588142794859e-02  3.6816099918420782e-02  3.7297833702558798e-02 
 3.7785870909364992e-02  3.8280294018288898e-02  3.8781186588012703e-02  3.9288633270572887e-02 
 3.9802719825666515e-02  4.0323533135145008e-02  4.0851161217697246e-02  4.1385693243724993e-02 
 4.1927219550412877e-02  4.2475831656995623e-02  4.3031622280224988e-02  4.3594685350039131e-02 
 4.4165116025437053e-02  4.4743010710560471e-02  4.5328467070986672e-02  4.5921584050233999e-02 
 4.6522461886483638e-02  4.7131202129520051e-02  4.7747907657893170e-02  4.8372682696305111e-02 
 4.9005632833224400e-02  4.9646865038730684e-02  5.0296487682592816e-02  5.0954610552583816e-02 
 5.1621344873035102e-02  5.2296803323633720e-02  5.2981100058465493e-02  5.3674350725307289e-02 
 5.4376672485171799e-02  5.5088184032108058e-02  5.5809005613260985e-02  5.6539259049193345e-02 
 5.7279067754473924e-02  5.8028556758534730e-02  5.8787852726801315e-02  5.9557083982099496e-02 
 6.0336380526342277e-02  6.1125874062500425e-02  6.1925698016860646e-02  6.2735987561574905e-02 
 6.3556879637504740e-02  6.4388512977364851e-02  6.5231028129169005e-02  6.6084567479983161e-02 
 6.6949275279989090e-02  6.7825297666863085e-02  6.8712782690473567e-02  6.9611880337901791e-02 
 7.0522742558790194e-02  7.1445523291021940e-02  7.2380378486737104e-02  7.3327466138688832e-02 
 7.4286946306944476e-02  7.5258981145936099e-02  7.6243734931865037e-02  7.7241374090464929e-02 
 7.8252067225128064e-02  7.9275985145399797e-02  8.0313300895845541e-02  8.1364189785296109e-02 
 8.2428829416475044e-02  8.3507399716013953e-02  8.4600082964860546e-02  8.5707063829084593e-02 
 8.6828529391086845e-02  8.7964669181216495e-02  8.9115675209802278e-02  9.0281741999602372e-02 
 9.1463066618679673e-02  9.2659848713706472e-02  9.3872290543705300e-02  9.5100597014231139e-02 
 9.6344975712000999e-02  9.7605636939976564e-02  9.8882793752905832e-02  1.0017666199333006e-01 
 1.0148746032806120e-01  1.0281541028513777e-01  1.0416073629126314e-01  1.0552366570973437e-01 
 1.0690442887886709e-01  1.0830325915092320e-01  1.0972039293154805e-01  1.1115606971972349e-01 
 1.1261053214824375e-01  1.1408402602472105e-01  1.1557680037312751e-01  1.1708910747588101e-01 
 1.1862120291648155e-01  1.2017334562270472e-01  1.2174579791036230e-01  1.2333882552763352e-01 
 1.2495269769997723e-01  1.2658768717563174e-01  1.2824407027170989e-01  1.2992212692089725e-01 
 1.3162214071876147e-01  1.3334439897168057e-01  1.3508919274539846e-01  1.3685681691421570e-01 
 1.3864757021082388e-01  1.4046175527679230e-01  1.4229967871371513e-01  1.4416165113502752e-01 
 1.4604798721850043e-01  1.4795900575942159e-01  1.4989502972447311e-01  1.5185638630631249e-01 
 1.5384340697887050e-01  1.5585642755337015e-01  1.5789578823507969e-01  1.5996183368080819e-01 
 1.6205491305715342e-01  1.6417538009951166e-01  1.6632359317185999e-01  1.6849991532732064e-01 
 1.7070471436951767e-01  1.7293836291473691e-01  1.7520123845489877e-01  1.7749372342135539e-01 
 1.7981620524952246e-01  1.8216907644435668e-01  1.8455273464668998e-01  1.8696758270043196e-01 
 1.8941402872065161e-01  1.9189248616254839e-01  1.9440337389132931e-01  1.9694711625299671e-01 
 1.9952414314606406e-01  2.0213489009420987e-01  2.0477979831988222e-01  2.0745931481886631e-01 
 2.1017389243582804e-01  2.1292398994084563e-01  2.1571007210694293e-01  2.1853260978863709e-01 
 2.2139208000151434e-01  2.2428896600284640e-01  2.2722375737326236e-01  2.3019695009948893e-01 
 2.3320904665817335e-01  2.3626055610080304e-01  2.3935199413973721e-01  2.4248388323536149e-01 
 2.4565675268438761e-01  2.4887113870930422e-01  2.5212758454900014e-01  2.5542664055057285e-01 
 2.5876886426233869e-01  2.6215482052805983e-01  2.6558508158240407e-01  2.6906022714765387e-01 
 2.7258084453168102e-01  2.7614752872720283e-01  2.7976088251233727e-01  2.8342151655247438e-01 
 2.8713004950347942e-01  2.9088710811624785e-01  2.9469332734262738e-01  2.9854935044272646e-01 
 3.0245582909362723e-01  3.0641342349951839e-01  3.1042280250327464e-01  3.1448464369949020e-01 
 3.1859963354899479e-01  3.2276846749486721e-01  3.2699185007996634e-01  3.3127049506600131e-01 
 3.3560512555415817e-01  3.3999647410730638e-01  3.4444528287380327e-01  3.4895230371291891e-01 
 3.5351829832190224e-01  3.5814403836470970e-01  3.6283030560241830e-01  3.6757789202534497e-01 
 3.7238759998689480e-01  3.7726024233916100e-01  3.8219664257029901e-01  3.8719763494369569e-01 
 3.9226406463896574e-01  3.9739678789478616e-01  4.0259667215360362e-01  4.0786459620823406e-01 
 4.1320145035038086e-01  4.1860813652109635e-01  4.2408556846321177e-01  4.2963467187576210e-01 
 4.3525638457043153e-01  4.4095165663004571e-01  4.4672145056913787e-01  4.5256674149661652e-01 
 4.5848851728056073e-01  4.6448777871517244e-01  4.7056553968991277e-01  4.7672282736085225e-01 
 4.8296068232426304e-01  4.8928015879247883e-01  4.9568232477206481e-01  5.0216826224430899e-01 
 5.0873906734808161e-01  5.1539585056508430e-01  5.2213973690752435e-01  5.2897186610824487e-01 
 5.3589339281334203e-01  5.4290548677730255e-01  5.5000933306069621e-01  5.5720613223045246e-01 
 5.6449710056276015e-01  5.7188347024862063e-01  5.7936648960209114e-01  5.8694742327125271e-01 
 5.9462755245193877e-01  6.0240817510426026e-01  6.1029060617196529e-01  6.1827617780466293e-01 
 6.2636623958296656e-01  6.3456215874657207e-01  6.4286532042532507e-01  6.5127712787331160e-01 
 6.5979900270601133e-01  6.6843238514055370e-01  6.7717873423911867e-01  6.8603952815552094e-01 
 6.9501626438502195e-01  7.0411046001740996e-01  7.1332365199339187e-01  7.2265739736433998e-01 
 7.3211327355543721e-01  7.4169287863226574e-01  7.5139783157088380e-01  7.6122977253143709e-01 
 7.7119036313534983e-01  7.8128128674613895e-01  7.9150424875391301e-01  8.0186097686358337e-01 
 8.1235322138685029e-01  8.2298275553801081e-01  8.3375137573363589e-01  8.4466090189616871e-01 
 8.5571317776149680e-01  8.6691007119054664e-01  8.7825347448495761e-01  8.8974530470688484e-01 
 9.0138750400298717e-01  9.1318203993265568e-01  9.2513090580053448e-01  9.3723612099339437e-01 
 9.4949973132141485e-01  9.6192380936392996e-01  9.7451045481970089e-01  9.8726179486176380e-01 
 1.0001799844969372e+00  1.0132672069300153e+00  1.0265256739327391e+00  1.0399576262175874e+00 
 1.0535653338164663e+00  1.0673510964643478e+00  1.0813172439879306e+00  1.0954661366993867e+00 
 1.1098001657952608e+00  1.1243217537605859e+00  1.1390333547782909e+00  1.1539374551439634e+00 
 1.1690365736860377e+00  1.1843332621914850e+00  1.1998301058370708e+00  1.2155297236262546e+00 
 1.2314347688318115e+00  1.2475479294442329e+00  1.2638719286260152e+00  1.2804095251718726e+00 
 1.2971635139749826e+00  1.3141367264993291e+00  1.3313320312582266e+00  1.3487523342991057e+00 
 1.3664005796946421e+00  1.3842797500403130e+00  1.4023928669584600e+00  1.4207429916089538e+00 
 1.4393332252065352e+00  1.4581667095449291e+00  1.4772466275278135e+00  1.4965762037067403e+00 
 1.5161587048260894e+00  1.5359974403751588e+00  1.5560957631474768e+00  1.5764570698074223e+00 
 1.5970848014642858e+00  1.6179824442538129e+00  1.6391535299273736e+00  1.6606016364488363e+00 
 1.6823303885992511e+00  1.7043434585894484e+00  1.7266445666806494e+00  1.7492374818132008e+00 
 1.7721260222435329e+00  1.7953140561894554e+00  1.8188055024838952e+00  1.8426043312371880e+00 
 1.8667145645080363e+00  1.8911402769832477e+00  1.9158855966663659e+00  1.9409547055753140e+00 
 1.9663518404491678e+00  1.9920812934641614e+00  2.0181474129590966e+00  2.0445546041702083e+00 
 2.0713073299756624e+00  2.0984101116497946e+00  2.1258675296272140e+00  2.1536842242769110e+00 
 2.1818648966864878e+00  2.2104143094566537e+00  2.2393372875061184e+00  2.2686387188870101e+00 
 2.2983235556109740e+00  2.3283968144860681e+00  2.3588635779646205e+00  2.3897289950021721e+00 
 2.4209982819276652e+00  2.4526767233250144e+00  2.4847696729262179e+00  2.5172825545161333e+00 
 2.5502208628491387e+00  2.5835901645777373e+00  2.6173960991933440e+00  2.6516443799793707e+00 
 2.6863407949767839e+00  2.7214912079622988e+00  2.7571015594393722e+00  2.7931778676421590e+00 
 2.8297262295526111e+00  2.8667528219308793e+00  2.9042639023592032e+00  2.9422658102994550e+00 
 2.9807649681645247e+00  3.0197678824037228e+00  3.0592811446023869e+00  3.0993114325958744e+00 
 3.1398655115981366e+00  3.1809502353450374e+00  3.2225725472526805e+00  3.2647394815908437e+00 
 3.3074581646717918e+00  3.3507358160546397e+00  3.3945797497654762e+00  3.4389973755334511e+00 
 3.4839962000430376e+00  3.5295838282026795e+00  3.5757679644300389e+00  3.6225564139540603e+00 
 3.6699570841340745e+00  3.7179779857961610e+00  3.7666272345869936e+00  3.8159130523454090e+00 
 3.8658437684919127e+00  3.9164278214363732e+00  3.9676737600041418e+00  4.0195902448807912e+00 
 4.0721860500758380e+00  4.1254700644055449e+00  4.1794512929951555e+00  4.2341388588007787e+00 
 4.2895420041512002e+00  4.3456700923098479e+00  4.4025326090572117e+00  4.4601391642939596e+00 
 4.5184994936650353e+00  4.5776234602050065e+00  4.6375210560049398e+00  4.6982024039010861e+00 
 4.7596777591856680e+00  4.8219575113400452e+00  4.8850521857905651e+00  4.9489724456873798e+00 
 5.0137290937065577e+00  5.0793330738757234e+00  5.1457954734236786e+00  5.2131275246541335e+00 
 5.2813406068440027e+00  5.3504462481665298e+00  5.4204561276395768e+00  5.4913820770994048e+00 
 5.5632360832002830e+00  5.6360302894402636e+00  5.7097769982134547e+00  5.7844886728891662e+00 
 5.8601779399182394e+00  5.9368575909669490e+00  6.0145405850788265e+00  6.0932400508647717e+00 
 6.1729692887218137e+00  6.2537417730809128e+00  6.3355711546841853e+00  6.4184712628918597e+00 
 6.5024561080195467e+00  6.5875398837059622e+00  6.6737369693117072e+00  6.7610619323494046e+00 
 6.8495295309456505e+00  6.9391547163351701e+00  7.0299526353876090e+00  7.1219386331673959e+00 
 7.2151282555270919e+00  7.3095372517346737e+00  7.4051815771352052e+00  7.5020773958473210e+00 
 7.6002410834950052e+00  7.6996892299751094e+00  7.8004386422610823e+00  7.9025063472433992e+00 
 8.0059095946071412e+00  8.1106658597471988e+00  8.2167928467217219e+00  8.3243084912441034e+00 
 8.4332309637141663e+00  8.5435786722890015e+00  8.6553702659939944e+00  8.7686246378745611e+00 
 8.8833609281891057e+00  8.9995985276437693e+00  9.1173570806695210e+00  9.2366564887420974e+00 
 9.3575169137454068e+00  9.4799587813789348e+00  9.6040027846097367e+00  9.7296698871695906e+00 
 9.8569813270979338e+00  9.9859586203311252e+00  1.0116623564338717e+01  1.0248998241807209e+01 
 1.0383105024372171e+01  1.0518966576399048e+01  1.0656605858813496e+01  1.0796046132981834e+01 
 1.0937310964642281e+01  1.1080424227887610e+01  1.1225410109199935e+01  1.1372293111538275e+01 
 1.1521098058479623e+01  1.1671850098414183e+01  1.1824574708795508e+01  1.1979297700446249e+01 
 1.2136045221920254e+01  1.2294843763921724e+01  1.2455720163782216e+01  1.2618701609996204e+01 
 1.2783815646816038e+01  1.2951090178906878e+01  1.3120553476062799e+01  1.3292234177984364e+01 
 1.3466161299118809e+01  1.3642364233563573e+01  1.3820872760033955e+01  1.4001717046895797e+01 
 1.4184927657264005e+01  1.4370535554167793e+01  1.4558572105783499e+01  1.4749069090735890e+01 
 1.4942058703468831e+01  1.5137573559686201e+01  1.5335646701864047e+01  1.5536311604834832e+01 
 1.5739602181444758e+01  1.5945552788285122e+01  1.6154198231498697e+01  1.6365573772661918e+01 
 1.6579715134744369e+01  1.6796658508145917e+01  1.7016440556813016e+01  1.7239098424434992e+01 
 1.7464669740721416e+01  1.7693192627761626e+01  1.7924705706467439e+01  1.8159248103100175e+01 
 1.8396859455883106e+01  1.8637579921700386e+01  1.8881450182883679e+01  1.9128511454087551e+01 
 1.9378805489254876e+01  1.9632374588673315e+01  1.9889261606124190e+01  2.0149509956124870e+01 
 2.0413163621265952e+01  2.0680267159644295e+01  2.0950865712393657e+01  2.1225005011313499e+01 
 2.1502731386597819e+01  2.1784091774665054e+01  2.2069133726090453e+01  2.2357905413642236e+01 
 2.2650455640422905e+01  2.2946833848117073e+01  2.3247090125347263e+01  2.3551275216138958e+01 
 2.3859440528496496e+01  2.4171638143091126e+01  2.4487920822062776e+01  2.4808342017936969e+01 
 2.5132955882658457e+01  2.5461817276743020e+01  2.5794981778548895e+01  2.6132505693669899e+01 
 2.6474446064451026e+01  2.6820860679628787e+01  2.7171808084097645e+01  2.7527347588804254e+01 
 2.7887539280771115e+01  2.8252444033251471e+01  2.8622123516016995e+01  2.8996640205780146e+01 
 2.9376057396752888e+01  2.9760439211343538e+01  3.0149850610993624e+01  3.0544357407156536e+01 
 3.0944026272419784e+01  3.1348924751772842e+01  3.1759121274022426e+01  3.2174685163357161e+01 
 3.2595686651063303e+01  3.3022196887394358e+01  3.3454287953595419e+01  3.3892032874085068e+01 
 3.4335505628796760e+01  3.4784781165681544e+01  3.5239935413374475e+01  3.5701045294026720e+01 
 3.6168188736305588e+01  3.6641444688564690e+01  3.7120893132186339e+01  3.7606615095098640e+01 
 3.8098692665469400e+01  3.8597209005579195e+01  3.9102248365876029e+01  3.9613896099213832e+01 
 4.0132238675277300e+01  4.0657363695195571e+01  4.1189359906346724e+01  4.1728317217356704e+01 
 4.2274326713293860e+01  4.2827480671062538e+01  4.3387872574998177e+01  4.3955597132666327e+01 
 4.4530750290868468e+01  4.5113429251857262e+01  4.5703732489763944e+01  4.6301759767240704e+01 
 4.6907612152320795e+01  4.7521392035499275e+01  4.8143203147037269e+01  4.8773150574492597e+01 
 4.9411340780479826e+01  5.0057881620662727e+01  5.0712882361982125e+01  5.1376453701122351e+01 
 5.2048707783218909e+01  5.2729758220811789e+01  5.3419720113045912e+01  5.4118710065123246e+01 
 5.4826846208009343e+01  5.5544248218397797e+01  5.6271037338935841e+01  5.7007336398714678e+01 
 5.7753269834027883e+01  5.8508963709401385e+01  5.9274545738898794e+01  6.0050145307705215e+01 
 6.0835893493993794e+01  6.1631923091078171e+01  6.2438368629854892e+01  6.3255366401539412e+01 
 6.4083054480699673e+01  6.4921572748591146e+01  6.5771062916796666e+01  6.6631668551176617e+01 
 6.7503535096131515e+01  6.8386809899182609e+01  6.9281642235873889e+01  7.0188183335000048e+01 
 7.1106586404164489e+01  7.2037006655671775e+01  7.2979601332758918e+01  7.3934529736169821e+01 
 7.4901953251077472e+01  7.5882035374358423e+01  7.6874941742224237e+01  7.7880840158214298e+01 
 7.8899900621555034e+01  7.9932295355890190e+01  8.0978198838387087e+01  8.2037787829223774e+01 
 8.3111241401461328e+01  8.4198740971308510e+01  8.5300470328781017e+01  8.6416615668762432e+01 
 8.7547365622471801e+01  8.8692911289342547e+01  8.9853446269318908e+01  9.1029166695574673e+01 
 9.2220271267660223e+01  9.3426961285083166e+01  9.4649440681328485e+01  9.5887916058323796e+01 
 9.7142596721355460e+01  9.8413694714441817e+01  9.9701424856169027e+01  1.0100600477599598e+02 
 1.0232765495103412e+02  1.0366659874330890e+02  1.0502306243750763e+02  1.0639727527922336e+02 
 1.0778946951369710e+02  1.0919988042506800e+02  1.1062874637613703e+02  1.1207630884865074e+02 