<PP_INFO>
Generated using Fritz-Haber code                                                
Author: unknown    Generation date: as well                                     
OPIUM generated O potential                                                     
    1        The Pseudo was generated with a Scalar-Relativistic Calculation
nl pn  l   occ               Rcut            Rcut US             E pseu
s   0  0  2.00      0.00000000000      0.00000000000      0.00000000000
p   0  1  6.00      0.00000000000      0.00000000000      0.00000000000
</PP_INFO>


<PP_HEADER>
   0                   Version Number
   O                   Element
   NC                  Norm - Conserving pseudopotential
    F                  Nonlinear Core Correction
SLA  PW   PBE  PBE     PBE  Exchange-Correlation functional
    6.00000000000      Z valence
    0.00000000000      Total energy
  0.0000000  0.0000000 Suggested cutoff for wfc and rho
    1                  Max angular momentum component
 1098                  Number of points in mesh
    2    1             Number of Wavefunctions, Number of Projectors
 Wavefunctions         nl  l   occ
                       s   0  2.00
                       p   1  6.00
</PP_HEADER>


<PP_MESH>
  <PP_R>
  5.00000000000E-05  5.06542433680E-05  5.13170474237E-05  5.19885241825E-05
  5.26687871257E-05  5.33579512192E-05  5.40561329335E-05  5.47634502629E-05
  5.54800227458E-05  5.62059714845E-05  5.69414191662E-05  5.76864900833E-05
  5.84413101545E-05  5.92060069462E-05  5.99807096940E-05  6.07655493245E-05
  6.15606584774E-05  6.23661715282E-05  6.31822246104E-05  6.40089556389E-05
  6.48465043333E-05  6.56950122412E-05  6.65546227626E-05  6.74254811736E-05
  6.83077346515E-05  6.92015322990E-05  7.01070251703E-05  7.10243662956E-05
  7.19537107079E-05  7.28952154686E-05  7.38490396941E-05  7.48153445832E-05
  7.57942934435E-05  7.67860517199E-05  7.77907870217E-05  7.88086691517E-05
  7.98398701344E-05  8.08845642451E-05  8.19429280397E-05  8.30151403842E-05
  8.41013824849E-05  8.52018379195E-05  8.63166926675E-05  8.74461351420E-05
  8.85903562215E-05  8.97495492820E-05  9.09239102300E-05  9.21136375351E-05
  9.33189322643E-05  9.45399981152E-05  9.57770414507E-05  9.70302713342E-05
  9.82998995645E-05  9.95861407118E-05  1.00889212154E-04  1.02209334113E-04
  1.03546729693E-04  1.04901624916E-04  1.06274248764E-04  1.07664833213E-04
  1.09073613275E-04  1.10500827037E-04  1.11946715702E-04  1.13411523628E-04
  1.14895498372E-04  1.16398890729E-04  1.17921954775E-04  1.19464947912E-04
  1.21028130909E-04  1.22611767949E-04  1.24216126669E-04  1.25841478211E-04
  1.27488097261E-04  1.29156262104E-04  1.30846254662E-04  1.32558360549E-04
  1.34292869114E-04  1.36050073494E-04  1.37830270660E-04  1.39633761470E-04
  1.41460850718E-04  1.43311847186E-04  1.45187063697E-04  1.47086817168E-04
  1.49011428661E-04  1.50961223440E-04  1.52936531026E-04  1.54937685248E-04
  1.56965024309E-04  1.59018890832E-04  1.61099631926E-04  1.63207599242E-04
  1.65343149030E-04  1.67506642204E-04  1.69698444399E-04  1.71918926035E-04
  1.74168462379E-04  1.76447433608E-04  1.78756224872E-04  1.81095226364E-04
  1.83464833381E-04  1.85865446391E-04  1.88297471104E-04  1.90761318537E-04
  1.93257405088E-04  1.95786152600E-04  1.98347988437E-04  2.00943345557E-04
  2.03572662581E-04  2.06236383868E-04  2.08934959596E-04  2.11668845829E-04
  2.14438504601E-04  2.17244403991E-04  2.20087018202E-04  2.22966827642E-04
  2.25884319008E-04  2.28839985361E-04  2.31834326216E-04  2.34867847624E-04
  2.37941062257E-04  2.41054489496E-04  2.44208655518E-04  2.47404093383E-04
  2.50641343129E-04  2.53920951859E-04  2.57243473834E-04  2.60609470568E-04
  2.64019510923E-04  2.67474171204E-04  2.70974035257E-04  2.74519694566E-04
  2.78111748357E-04  2.81750803695E-04  2.85437475590E-04  2.89172387098E-04
  2.92956169427E-04  2.96789462046E-04  3.00672912791E-04  3.04607177974E-04
  3.08592922494E-04  3.12630819953E-04  3.16721552765E-04  3.20865812273E-04
  3.25064298867E-04  3.29317722101E-04  3.33626800814E-04  3.37992263250E-04
  3.42414847183E-04  3.46895300041E-04  3.51434379029E-04  3.56032851265E-04
  3.60691493899E-04  3.65411094255E-04  3.70192449955E-04  3.75036369060E-04
  3.79943670204E-04  3.84915182733E-04  3.89951746844E-04  3.95054213728E-04
  4.00223445715E-04  4.05460316416E-04  4.10765710876E-04  4.16140525719E-04
  4.21585669301E-04  4.27102061865E-04  4.32690635693E-04  4.38352335269E-04
  4.44088117433E-04  4.49898951546E-04  4.55785819652E-04  4.61749716647E-04
  4.67791650442E-04  4.73912642140E-04  4.80113726203E-04  4.86395950628E-04
  4.92760377126E-04  4.99208081301E-04  5.05740152830E-04  5.12357695648E-04
  5.19061828137E-04  5.25853683309E-04  5.32734409006E-04  5.39705168086E-04
  5.46767138624E-04  5.53921514109E-04  5.61169503649E-04  5.68512332171E-04
  5.75951240630E-04  5.83487486219E-04  5.91122342582E-04  5.98857100028E-04
  6.06693065750E-04  6.14631564043E-04  6.22673936534E-04  6.30821542402E-04
  6.39075758612E-04  6.47437980146E-04  6.55909620240E-04  6.64492110621E-04
  6.73186901750E-04  6.81995463068E-04  6.90919283242E-04  6.99959870420E-04
  7.09118752481E-04  7.18397477300E-04  7.27797613002E-04  7.37320748233E-04
  7.46968492425E-04  7.56742476070E-04  7.66644350995E-04  7.76675790640E-04
  7.86838490342E-04  7.97134167622E-04  8.07564562473E-04  8.18131437658E-04
  8.28836579003E-04  8.39681795702E-04  8.50668920623E-04  8.61799810616E-04
  8.73076346829E-04  8.84500435022E-04  8.96074005894E-04  9.07799015406E-04
  9.19677445112E-04  9.31711302495E-04  9.43902621306E-04  9.56253461906E-04
  9.68765911617E-04  9.81442085074E-04  9.94284124578E-04  1.00729420047E-03
  1.02047451147E-03  1.03382728510E-03  1.04735477800E-03  1.06105927635E-03
  1.07494309624E-03  1.08900858407E-03  1.10325811695E-03  1.11769410307E-03
  1.13231898216E-03  1.14713522585E-03  1.16214533812E-03  1.17735185573E-03
  1.19275734859E-03  1.20836442029E-03  1.22417570845E-03  1.24019388522E-03
  1.25642165771E-03  1.27286176845E-03  1.28951699586E-03  1.30639015471E-03
  1.32348409660E-03  1.34080171046E-03  1.35834592300E-03  1.37611969923E-03
  1.39412604296E-03  1.41236799732E-03  1.43084864523E-03  1.44957110996E-03
  1.46853855566E-03  1.48775418788E-03  1.50722125409E-03  1.52694304428E-03
  1.54692289148E-03  1.56716417233E-03  1.58767030766E-03  1.60844476305E-03
  1.62949104943E-03  1.65081272367E-03  1.67241338920E-03  1.69429669657E-03
  1.71646634411E-03  1.73892607855E-03  1.76167969563E-03  1.78473104078E-03
  1.80808400972E-03  1.83174254917E-03  1.85571065746E-03  1.87999238527E-03
  1.90459183627E-03  1.92951316782E-03  1.95476059169E-03  1.98033837475E-03
  2.00625083972E-03  2.03250236584E-03  2.05909738971E-03  2.08604040593E-03
  2.11333596795E-03  2.14098868878E-03  2.16900324179E-03  2.19738436151E-03
  2.22613684442E-03  2.25526554976E-03  2.28477540034E-03  2.31467138340E-03
  2.34495855143E-03  2.37564202304E-03  2.40672698381E-03  2.43821868716E-03
  2.47012245528E-03  2.50244367997E-03  2.53518782359E-03  2.56836042000E-03
  2.60196707543E-03  2.63601346948E-03  2.67050535609E-03  2.70544856446E-03
  2.74084900007E-03  2.77671264569E-03  2.81304556236E-03  2.84985389042E-03
  2.88714385057E-03  2.92492174490E-03  2.96319395797E-03  3.00196695787E-03
  3.04124729733E-03  3.08104161483E-03  3.12135663569E-03  3.16219917325E-03
  3.20357613000E-03  3.24549449873E-03  3.28796136377E-03  3.33098390210E-03
  3.37456938463E-03  3.41872517743E-03  3.46345874291E-03  3.50877764117E-03
  3.55468953120E-03  3.60120217222E-03  3.64832342498E-03  3.69606125308E-03
  3.74442372433E-03  3.79341901211E-03  3.84305539672E-03  3.89334126684E-03
  3.94428512090E-03  3.99589556854E-03  4.04818133204E-03  4.10115124782E-03
  4.15481426792E-03  4.20917946152E-03  4.26425601647E-03  4.32005324083E-03
  4.37658056447E-03  4.43384754065E-03  4.49186384761E-03  4.55063929026E-03
  4.61018380177E-03  4.67050744532E-03  4.73162041575E-03  4.79353304128E-03
  4.85625578531E-03  4.91979924813E-03  4.98417416873E-03  5.04939142662E-03
  5.11546204369E-03  5.18239718601E-03  5.25020816580E-03  5.31890644326E-03
  5.38850362857E-03  5.45901148382E-03  5.53044192500E-03  5.60280702403E-03
  5.67611901078E-03  5.75039027516E-03  5.82563336917E-03  5.90186100910E-03
  5.97908607758E-03  6.05732162583E-03  6.13658087586E-03  6.21687722267E-03
  6.29822423652E-03  6.38063566525E-03  6.46412543661E-03  6.54870766054E-03
  6.63439663166E-03  6.72120683159E-03  6.80915293148E-03  6.89824979443E-03
  6.98851247800E-03  7.07995623682E-03  7.17259652509E-03  7.26644899925E-03
  7.36152952058E-03  7.45785415792E-03  7.55543919036E-03  7.65430111002E-03
  7.75445662477E-03  7.85592266115E-03  7.95871636716E-03  8.06285511518E-03
  8.16835650491E-03  8.27523836632E-03  8.38351876272E-03  8.49321599373E-03
  8.60434859847E-03  8.71693535860E-03  8.83099530155E-03  8.94654770373E-03
  9.06361209376E-03  9.18220825581E-03  9.30235623290E-03  9.42407633034E-03
  9.54738911911E-03  9.67231543937E-03  9.79887640396E-03  9.92709340198E-03
  1.00569881024E-02  1.01885824578E-02  1.03218987078E-02  1.04569593833E-02
  1.05937873098E-02  1.07324056116E-02  1.08728377155E-02  1.10151073548E-02
  1.11592385735E-02  1.13052557301E-02  1.14531835018E-02  1.16030468888E-02
  1.17548712183E-02  1.19086821490E-02  1.20645056753E-02  1.22223681319E-02
  1.23822961977E-02  1.25443169010E-02  1.27084576238E-02  1.28747461062E-02
  1.30432104513E-02  1.32138791300E-02  1.33867809857E-02  1.35619452393E-02
  1.37394014939E-02  1.39191797400E-02  1.41013103607E-02  1.42858241363E-02
  1.44727522503E-02  1.46621262938E-02  1.48539782716E-02  1.50483406070E-02
  1.52452461478E-02  1.54447281716E-02  1.56468203911E-02  1.58515569605E-02
  1.60589724808E-02  1.62691020056E-02  1.64819810474E-02  1.66976455833E-02
  1.69161320609E-02  1.71374774052E-02  1.73617190239E-02  1.75888948145E-02
  1.78190431702E-02  1.80522029865E-02  1.82884136681E-02  1.85277151352E-02
  1.87701478302E-02  1.90157527249E-02  1.92645713271E-02  1.95166456876E-02
  1.97720184078E-02  2.00307326461E-02  2.02928321259E-02  2.05583611426E-02
  2.08273645713E-02  2.10998878741E-02  2.13759771083E-02  2.16556789334E-02
  2.19390406199E-02  2.22261100564E-02  2.25169357584E-02  2.28115668761E-02
  2.31100532030E-02  2.34124451838E-02  2.37187939236E-02  2.40291511960E-02
  2.43435694522E-02  2.46621018296E-02  2.49848021608E-02  2.53117249831E-02
  2.56429255471E-02  2.59784598266E-02  2.63183845277E-02  2.66627570984E-02
  2.70116357384E-02  2.73650794092E-02  2.77231478436E-02  2.80859015559E-02
  2.84534018525E-02  2.88257108416E-02  2.92028914446E-02  2.95850074056E-02
  2.99721233034E-02  3.03643045613E-02  3.07616174590E-02  3.11641291432E-02
  3.15719076394E-02  3.19850218632E-02  3.24035416317E-02  3.28275376760E-02
  3.32570816522E-02  3.36922461544E-02  3.41331047264E-02  3.45797318743E-02
  3.50322030792E-02  3.54905948098E-02  3.59549845355E-02  3.64254507390E-02
  3.69020729305E-02  3.73849316601E-02  3.78741085321E-02  3.83696862186E-02
  3.88717484734E-02  3.93803801462E-02  3.98956671970E-02  4.04176967105E-02
  4.09465569110E-02  4.14823371770E-02  4.20251280567E-02  4.25750212831E-02
  4.31321097895E-02  4.36964877250E-02  4.42682504710E-02  4.48474946566E-02
  4.54343181756E-02  4.60288202026E-02  4.66311012096E-02  4.72412629838E-02
  4.78594086439E-02  4.84856426579E-02  4.91200708609E-02  4.97628004728E-02
  5.04139401165E-02  5.10735998360E-02  5.17418911154E-02  5.24189268976E-02
  5.31048216032E-02  5.37996911501E-02  5.45036529728E-02  5.52168260425E-02
  5.59393308873E-02  5.66712896122E-02  5.74128259199E-02  5.81640651318E-02
  5.89251342091E-02  5.96961617744E-02  6.04772781331E-02  6.12686152958E-02
  6.20703070002E-02  6.28824887343E-02  6.37052977587E-02  6.45388731300E-02
  6.53833557244E-02  6.62388882616E-02  6.71056153286E-02  6.79836834042E-02
  6.88732408842E-02  6.97744381058E-02  7.06874273736E-02  7.16123629847E-02
  7.25494012557E-02  7.34987005482E-02  7.44604212960E-02  7.54347260322E-02
  7.64217794166E-02  7.74217482637E-02  7.84348015705E-02  7.94611105455E-02
  8.05008486372E-02  8.15541915640E-02  8.26213173432E-02  8.37024063218E-02
  8.47976412062E-02  8.59072070938E-02  8.70312915039E-02  8.81700844093E-02
  8.93237782689E-02  9.04925680597E-02  9.16766513098E-02  9.28762281321E-02
  9.40915012581E-02  9.53226760718E-02  9.65699606446E-02  9.78335657705E-02
  9.91137050020E-02  1.00410594685E-01  1.01724453998E-01  1.03055504986E-01
  1.04403972600E-01  1.05770084733E-01  1.07154072262E-01  1.08556169085E-01
  1.09976612159E-01  1.11415641541E-01  1.12873500433E-01  1.14350435214E-01
  1.15846695492E-01  1.17362534136E-01  1.18898207328E-01  1.20453974601E-01
  1.22030098881E-01  1.23626846539E-01  1.25244487428E-01  1.26883294934E-01
  1.28543546018E-01  1.30225521268E-01  1.31929504940E-01  1.33655785013E-01
  1.35404653232E-01  1.37176405159E-01  1.38971340226E-01  1.40789761780E-01
  1.42631977138E-01  1.44498297640E-01  1.46389038698E-01  1.48304519853E-01
  1.50245064824E-01  1.52211001569E-01  1.54202662335E-01  1.56220383718E-01
  1.58264506718E-01  1.60335376796E-01  1.62433343934E-01  1.64558762695E-01
  1.66711992277E-01  1.68893396584E-01  1.71103344276E-01  1.73342208841E-01
  1.75610368651E-01  1.77908207032E-01  1.80236112323E-01  1.82594477946E-01
  1.84983702471E-01  1.87404189681E-01  1.89856348646E-01  1.92340593786E-01
  1.94857344943E-01  1.97407027456E-01  1.99990072226E-01  2.02606915794E-01
  2.05258000414E-01  2.07943774124E-01  2.10664690826E-01  2.13421210363E-01
  2.16213798593E-01  2.19042927469E-01  2.21909075121E-01  2.24812725934E-01
  2.27754370634E-01  2.30734506364E-01  2.33753636776E-01  2.36812272108E-01
  2.39910929277E-01  2.43050131965E-01  2.46230410704E-01  2.49452302968E-01
  2.52716353265E-01  2.56023113227E-01  2.59373141704E-01  2.62767004860E-01
  2.66205276265E-01  2.69688536996E-01  2.73217375731E-01  2.76792388853E-01
  2.80414180547E-01  2.84083362905E-01  2.87800556028E-01  2.91566388130E-01
  2.95381495645E-01  2.99246523336E-01  3.03162124402E-01  3.07128960588E-01
  3.11147702300E-01  3.15219028714E-01  3.19343627894E-01  3.23522196907E-01
  3.27755441941E-01  3.32044078426E-01  3.36388831149E-01  3.40790434386E-01
  3.45249632018E-01  3.49767177659E-01  3.54343834785E-01  3.58980376863E-01
  3.63677587479E-01  3.68436260473E-01  3.73257200072E-01  3.78141221026E-01
  3.83089148746E-01  3.88101819445E-01  3.93180080274E-01  3.98324789473E-01
  4.03536816509E-01  4.08817042228E-01  4.14166359000E-01  4.19585670873E-01
  4.25075893722E-01  4.30637955409E-01  4.36272795936E-01  4.41981367604E-01
  4.47764635174E-01  4.53623576034E-01  4.59559180357E-01  4.65572451276E-01
  4.71664405048E-01  4.77836071226E-01  4.84088492838E-01  4.90422726557E-01
  4.96839842884E-01  5.03340926328E-01  5.09927075585E-01  5.16599403732E-01
  5.23359038408E-01  5.30207122008E-01  5.37144811872E-01  5.44173280489E-01
  5.51293715685E-01  5.58507320831E-01  5.65815315043E-01  5.73218933391E-01
  5.80719427102E-01  5.88318063779E-01  5.96016127609E-01  6.03814919583E-01
  6.11715757716E-01  6.19719977267E-01  6.27828930970E-01  6.36043989257E-01
  6.44366540491E-01  6.52797991204E-01  6.61339766332E-01  6.69993309454E-01
  6.78760083040E-01  6.87641568696E-01  6.96639267414E-01  7.05754699825E-01
  7.14989406461E-01  7.24344948008E-01  7.33822905576E-01  7.43424880961E-01
  7.53152496920E-01  7.63007397444E-01  7.72991248034E-01  7.83105735985E-01
  7.93352570669E-01  8.03733483826E-01  8.14250229854E-01  8.24904586110E-01
  8.35698353203E-01  8.46633355308E-01  8.57711440465E-01  8.68934480896E-01
  8.80304373323E-01  8.91823039284E-01  9.03492425462E-01  9.15314504009E-01
  9.27291272887E-01  9.39424756196E-01  9.51717004526E-01  9.64170095294E-01
  9.76786133103E-01  9.89567250094E-01  1.00251560630E+00  1.01563339004E+00
  1.02892281823E+00  1.04238613683E+00  1.05602562117E+00  1.06984357635E+00
  1.08384233765E+00  1.09802427087E+00  1.11239177282E+00  1.12694727162E+00
  1.14169322719E+00  1.15663213163E+00  1.17176650966E+00  1.18709891901E+00
  1.20263195091E+00  1.21836823047E+00  1.23431041716E+00  1.25046120525E+00
  1.26682332426E+00  1.28339953943E+00  1.30019265217E+00  1.31720550056E+00
  1.33444095983E+00  1.35190194278E+00  1.36959140039E+00  1.38751232220E+00
  1.40566773690E+00  1.42406071279E+00  1.44269435832E+00  1.46157182264E+00
  1.48069629608E+00  1.50007101071E+00  1.51969924092E+00  1.53958430391E+00
  1.55972956032E+00  1.58013841473E+00  1.60081431630E+00  1.62176075930E+00
  1.64298128372E+00  1.66447947589E+00  1.68625896906E+00  1.70832344400E+00
  1.73067662968E+00  1.75332230382E+00  1.77626429360E+00  1.79950647628E+00
  1.82305277984E+00  1.84690718365E+00  1.87107371917E+00  1.89555647061E+00
  1.92035957560E+00  1.94548722593E+00  1.97094366823E+00  1.99673320470E+00
  2.02286019384E+00  2.04932905116E+00  2.07614424998E+00  2.10331032211E+00
  2.13083185869E+00  2.15871351093E+00  2.18695999088E+00  2.21557607229E+00
  2.24456659132E+00  2.27393644744E+00  2.30369060424E+00  2.33383409024E+00
  2.36437199975E+00  2.39530949375E+00  2.42665180077E+00  2.45840421771E+00
  2.49057211081E+00  2.52316091653E+00  2.55617614245E+00  2.58962336823E+00
  2.62350824651E+00  2.65783650393E+00  2.69261394205E+00  2.72784643833E+00
  2.76353994716E+00  2.79970050081E+00  2.83633421051E+00  2.87344726744E+00
  2.91104594380E+00  2.94913659386E+00  2.98772565501E+00  3.02681964892E+00
  3.06642518254E+00  3.10654894933E+00  3.14719773028E+00  3.18837839513E+00
  3.23009790352E+00  3.27236330615E+00  3.31518174597E+00  3.35856045938E+00
  3.40250677752E+00  3.44702812739E+00  3.49213203322E+00  3.53782611768E+00
  3.58411810317E+00  3.63101581315E+00  3.67852717345E+00  3.72666021359E+00
  3.77542306818E+00  3.82482397826E+00  3.87487129269E+00  3.92557346959E+00
  3.97693907775E+00  4.02897679808E+00  4.08169542508E+00  4.13510386832E+00
  4.18921115396E+00  4.24402642625E+00  4.29955894911E+00  4.35581810766E+00
  4.41281340984E+00  4.47055448800E+00  4.52905110050E+00  4.58831313341E+00
  4.64835060217E+00  4.70917365324E+00  4.77079256587E+00  4.83321775379E+00
  4.89645976702E+00  4.96052929361E+00  5.02543716145E+00  5.09119434013E+00
  5.15781194277E+00  5.22530122791E+00  5.29367360139E+00  5.36294061831E+00
  5.43311398496E+00  5.50420556081E+00  5.57622736049E+00  5.64919155587E+00
  5.72311047807E+00  5.79799661956E+00  5.87386263628E+00  5.95072134977E+00
  6.02858574932E+00  6.10746899422E+00  6.18738441591E+00  6.26834552030E+00
  6.35036599000E+00  6.43345968666E+00  6.51764065333E+00  6.60292311678E+00
  6.68932148995E+00  6.77685037437E+00  6.86552456263E+00  6.95535904089E+00
  7.04636899138E+00  7.13856979500E+00  7.23197703391E+00  7.32660649415E+00
  7.42247416832E+00  7.51959625829E+00  7.61798917793E+00  7.71766955588E+00
  7.81865423834E+00  7.92096029198E+00  8.02460500676E+00  8.12960589889E+00
  8.23598071377E+00  8.34374742899E+00  8.45292425738E+00  8.56352965009E+00
  8.67558229969E+00  8.78910114335E+00  8.90410536602E+00  9.02061440370E+00
  9.13864794667E+00  9.25822594290E+00  9.37936860135E+00  9.50209639542E+00
  9.62643006639E+00  9.75239062696E+00  9.87999936476E+00  1.00092778460E+01
  1.01402479189E+01  1.02729317180E+01  1.04073516669E+01  1.05435304830E+01
  1.06814911809E+01  1.08212570762E+01  1.09628517897E+01  1.11062992513E+01
  1.12516237038E+01  1.13988497076E+01  1.15480021440E+01  1.16991062204E+01
  1.18521874735E+01  1.20072717745E+01  1.21643853330E+01  1.23235547016E+01
  1.24848067803E+01  1.26481688210E+01  1.28136684324E+01  1.29813335842E+01
  1.31511926123E+01  1.33232742233E+01  1.34976074993E+01  1.36742219031E+01
  1.38531472829E+01  1.40344138777E+01  1.42180523217E+01  1.44040936505E+01
  1.45925693053E+01  1.47835111391E+01  1.49769514215E+01  1.51729228443E+01
  1.53714585272E+01  1.55725920231E+01  1.57763573242E+01  1.59827888672E+01
  1.61919215396E+01  1.64037906852E+01  1.66184321105E+01  1.68358820904E+01
  1.70561773745E+01  1.72793551931E+01  1.75054532638E+01  1.77345097979E+01
  1.79665635063E+01  1.82016536067E+01  1.84398198298E+01  1.86811024264E+01
  1.89255421738E+01  1.91731803829E+01  1.94240589051E+01  1.96782201394E+01
  1.99357070398E+01  2.01965631222E+01  2.04608324717E+01  2.07285597507E+01
  2.09997902056E+01  2.12745696750E+01  2.15529445974E+01  2.18349620186E+01
  2.21206696004E+01  2.24101156281E+01  2.27033490186E+01  2.30004193291E+01
  2.33013767653E+01  2.36062721895E+01  2.39151571300E+01  2.42280837889E+01
  2.45451050517E+01  2.48662744956E+01  2.51916463991E+01  2.55212757508E+01
  2.58552182589E+01  2.61935303604E+01  2.65362692308E+01  2.68834927939E+01
  2.72352597313E+01  2.75916294924E+01  2.79526623046E+01  2.83184191832E+01
  2.86889619420E+01  2.90643532037E+01  2.94446564103E+01  2.98299358339E+01
  3.02202565876E+01  3.06156846366E+01  3.10162868092E+01  3.14221308081E+01
  3.18332852219E+01  3.22498195367E+01  3.26718041477E+01  3.30993103714E+01
  3.35324104573E+01  3.39711776004E+01  3.44156859533E+01  3.48660106391E+01
  3.53222277637E+01  3.57844144288E+01  3.62526487452E+01  3.67270098455E+01
  3.72075778978E+01  3.76944341194E+01  3.81876607900E+01  3.86873412663E+01
  3.91935599952E+01  3.97064025291E+01  4.02259555395E+01  4.07523068322E+01
  4.12855453617E+01  4.18257612466E+01  4.23730457848E+01  4.29274914685E+01
  4.34891920005E+01  4.40582423094E+01  4.46347385661E+01  4.52187781999E+01
  4.58104599148E+01  4.64098837065E+01  4.70171508790E+01  4.76323640618E+01
  4.82556272276E+01  4.88870457093E+01  4.95267262180E+01  5.01747768613E+01
  5.08313071613E+01  5.14964280733E+01  5.21702520041E+01  5.28528928317E+01
  5.35444659240E+01  5.42450881585E+01  5.49548779419E+01  5.56739552306E+01
  5.64024415502E+01  5.71404600166E+01  5.78881353568E+01  5.86455939297E+01
  5.94129637475E+01  6.01903744976E+01  6.09779575642E+01  6.17758460508E+01
  6.25841748024E+01  6.34030804285E+01  6.42327013262E+01  6.50731777032E+01
  6.59246516021E+01  6.67872669241E+01  6.76611694531E+01  6.85465068808E+01
  6.94434288313E+01  7.03520868866E+01  7.12726346120E+01  7.22052275822E+01
  7.31500234078E+01  7.41071817615E+01  7.50768644053E+01  7.60592352178E+01
  7.70544602221E+01  7.80627076136E+01
  </PP_R>
  <PP_RAB>
  6.50000000000E-07  6.58505163784E-07  6.67121616508E-07  6.75850814373E-07
  6.84694232634E-07  6.93653365850E-07  7.02729728136E-07  7.11924853418E-07
  7.21240295695E-07  7.30677629299E-07  7.40238449161E-07  7.49924371083E-07
  7.59737032008E-07  7.69678090301E-07  7.79749226022E-07  7.89952141218E-07
  8.00288560207E-07  8.10760229867E-07  8.21368919935E-07  8.32116423306E-07
  8.43004556333E-07  8.54035159136E-07  8.65210095914E-07  8.76531255257E-07
  8.88000550469E-07  8.99619919887E-07  9.11391327213E-07  9.23316761843E-07
  9.35398239203E-07  9.47637801091E-07  9.60037516024E-07  9.72599479581E-07
  9.85325814766E-07  9.98218672358E-07  1.01128023128E-06  1.02451269897E-06
  1.03791831175E-06  1.05149933519E-06  1.06525806452E-06  1.07919682499E-06
  1.09331797230E-06  1.10762389295E-06  1.12211700468E-06  1.13679975685E-06
  1.15167463088E-06  1.16674414067E-06  1.18201083299E-06  1.19747728796E-06
  1.21314611944E-06  1.22901997550E-06  1.24510153886E-06  1.26139352734E-06
  1.27789869434E-06  1.29461982925E-06  1.31155975800E-06  1.32872134347E-06
  1.34610748601E-06  1.36372112391E-06  1.38156523393E-06  1.39964283177E-06
  1.41795697257E-06  1.43651075148E-06  1.45530730413E-06  1.47434980717E-06
  1.49364147884E-06  1.51318557947E-06  1.53298541207E-06  1.55304432285E-06
  1.57336570182E-06  1.59395298334E-06  1.61480964670E-06  1.63593921674E-06
  1.65734526440E-06  1.67903140735E-06  1.70100131061E-06  1.72325868714E-06
  1.74580729849E-06  1.76865095542E-06  1.79179351858E-06  1.81523889911E-06
  1.83899105933E-06  1.86305401342E-06  1.88743182807E-06  1.91212862319E-06
  1.93714857260E-06  1.96249590472E-06  1.98817490333E-06  2.01418990823E-06
  2.04054531602E-06  2.06724558082E-06  2.09429521504E-06  2.12169879014E-06
  2.14946093739E-06  2.17758634865E-06  2.20607977719E-06  2.23494603846E-06
  2.26419001093E-06  2.29381663690E-06  2.32383092334E-06  2.35423794274E-06
  2.38504283395E-06  2.41625080308E-06  2.44786712435E-06  2.47989714099E-06
  2.51234626614E-06  2.54521998380E-06  2.57852384968E-06  2.61226349224E-06
  2.64644461355E-06  2.68107299029E-06  2.71615447475E-06  2.75169499578E-06
  2.78770055982E-06  2.82417725188E-06  2.86113123662E-06  2.89856875935E-06
  2.93649614710E-06  2.97491980969E-06  3.01384624080E-06  3.05328201911E-06
  3.09323380934E-06  3.13370836345E-06  3.17471252173E-06  3.21625321398E-06
  3.25833746068E-06  3.30097237417E-06  3.34416515984E-06  3.38792311739E-06
  3.43225364200E-06  3.47716422565E-06  3.52266245834E-06  3.56875602936E-06
  3.61545272864E-06  3.66276044804E-06  3.71068718267E-06  3.75924103227E-06
  3.80843020255E-06  3.85826300660E-06  3.90874786628E-06  3.95989331366E-06
  4.01170799242E-06  4.06420065939E-06  4.11738018594E-06  4.17125555955E-06
  4.22583588527E-06  4.28113038731E-06  4.33714841058E-06  4.39389942225E-06
  4.45139301338E-06  4.50963890053E-06  4.56864692738E-06  4.62842706644E-06
  4.68898942069E-06  4.75034422531E-06  4.81250184941E-06  4.87547279778E-06
  4.93926771266E-06  5.00389737553E-06  5.06937270897E-06  5.13570477847E-06
  5.20290479429E-06  5.27098411341E-06  5.33995424139E-06  5.40982683435E-06
  5.48061370091E-06  5.55232680424E-06  5.62497826401E-06  5.69858035850E-06
  5.77314552663E-06  5.84868637009E-06  5.92521565548E-06  6.00274631641E-06
  6.08129145575E-06  6.16086434783E-06  6.24147844064E-06  6.32314735816E-06
  6.40588490264E-06  6.48970505692E-06  6.57462198679E-06  6.66065004343E-06
  6.74780376578E-06  6.83609788302E-06  6.92554731708E-06  7.01616718512E-06
  7.10797280211E-06  7.20097968342E-06  7.29520354744E-06  7.39066031822E-06
  7.48736612819E-06  7.58533732085E-06  7.68459045357E-06  7.78514230037E-06
  7.88700985475E-06  7.99021033256E-06  8.09476117494E-06  8.20068005122E-06
  8.30798486195E-06  8.41669374190E-06  8.52682506312E-06  8.63839743807E-06
  8.75142972275E-06  8.86594101988E-06  8.98195068215E-06  9.09947831546E-06
  9.21854378226E-06  9.33916720490E-06  9.46136896902E-06  9.58516972703E-06
  9.71059040153E-06  9.83765218892E-06  9.96637656294E-06  1.00967852783E-05
  1.02289003745E-05  1.03627441791E-05  1.04983393122E-05  1.06357086896E-05
  1.07748755270E-05  1.09158633441E-05  1.10586959681E-05  1.12033975380E-05
  1.13499925088E-05  1.14985056553E-05  1.16489620766E-05  1.18013872003E-05
  1.19558067865E-05  1.21122469324E-05  1.22707340770E-05  1.24312950048E-05
  1.25939568510E-05  1.27587471060E-05  1.29256936195E-05  1.30948246061E-05
  1.32661686491E-05  1.34397547063E-05  1.36156121140E-05  1.37937705925E-05
  1.39742602511E-05  1.41571115929E-05  1.43423555203E-05  1.45300233399E-05
  1.47201467681E-05  1.49127579360E-05  1.51078893956E-05  1.53055741244E-05
  1.55058455317E-05  1.57087374638E-05  1.59142842099E-05  1.61225205079E-05
  1.63334815503E-05  1.65472029899E-05  1.67637209462E-05  1.69830720112E-05
  1.72052932558E-05  1.74304222360E-05  1.76584969990E-05  1.78895560900E-05
  1.81236385585E-05  1.83607839651E-05  1.86010323880E-05  1.88444244295E-05
  1.90910012236E-05  1.93408044424E-05  1.95938763032E-05  1.98502595757E-05
  2.01099975893E-05  2.03731342403E-05  2.06397139996E-05  2.09097819196E-05
  2.11833836425E-05  2.14605654077E-05  2.17413740596E-05  2.20258570554E-05
  2.23140624734E-05  2.26060390211E-05  2.29018360433E-05  2.32015035302E-05
  2.35050921264E-05  2.38126531392E-05  2.41242385470E-05  2.44399010085E-05
  2.47596938715E-05  2.50836711817E-05  2.54118876920E-05  2.57443988718E-05
  2.60812609163E-05  2.64225307560E-05  2.67682660662E-05  2.71185252772E-05
  2.74733675834E-05  2.78328529542E-05  2.81970421433E-05  2.85659966997E-05
  2.89397789775E-05  2.93184521468E-05  2.97020802044E-05  3.00907279842E-05
  3.04844611686E-05  3.08833462995E-05  3.12874507895E-05  3.16968429331E-05
  3.21115919186E-05  3.25317678396E-05  3.29574417067E-05  3.33886854600E-05
  3.38255719805E-05  3.42681751033E-05  3.47165696292E-05  3.51708313379E-05
  3.56310370009E-05  3.60972643940E-05  3.65695923106E-05  3.70481005754E-05
  3.75328700574E-05  3.80239826837E-05  3.85215214536E-05  3.90255704523E-05
  3.95362148654E-05  4.00535409928E-05  4.05776362640E-05  4.11085892522E-05
  4.16464896900E-05  4.21914284836E-05  4.27434977290E-05  4.33027907273E-05
  4.38694020002E-05  4.44434273066E-05  4.50249636579E-05  4.56141093352E-05
  4.62109639056E-05  4.68156282389E-05  4.74282045248E-05  4.80487962901E-05
  4.86775084163E-05  4.93144471574E-05  4.99597201573E-05  5.06134364689E-05
  5.12757065718E-05  5.19466423910E-05  5.26263573165E-05  5.33149662216E-05
  5.40125854829E-05  5.47193329997E-05  5.54353282140E-05  5.61606921308E-05
  5.68955473381E-05  5.76400180284E-05  5.83942300189E-05  5.91583107733E-05
  5.99323894230E-05  6.07165967892E-05  6.15110654047E-05  6.23159295367E-05
  6.31313252091E-05  6.39573902257E-05  6.47942641935E-05  6.56420885461E-05
  6.65010065680E-05  6.73711634182E-05  6.82527061554E-05  6.91457837624E-05
  7.00505471714E-05  7.09671492896E-05  7.18957450250E-05  7.28364913124E-05
  7.37895471402E-05  7.47550735770E-05  7.57332337992E-05  7.67241931182E-05
  7.77281190085E-05  7.87451811358E-05  7.97755513862E-05  8.08194038947E-05
  8.18769150747E-05  8.29482636483E-05  8.40336306759E-05  8.51331995870E-05
  8.62471562115E-05  8.73756888107E-05  8.85189881093E-05  8.96772473275E-05
  9.08506622140E-05  9.20394310786E-05  9.32437548262E-05  9.44638369902E-05
  9.56998837675E-05  9.69521040530E-05  9.82207094747E-05  9.95059144302E-05
  1.00807936122E-04  1.02126994595E-04  1.03463312773E-04  1.04817116497E-04