<PP_INFO>
Generated using Fritz-Haber code                                                
Author: unknown    Generation date: as well                                     
OPIUM generated Sr potential                                                    
    1        The Pseudo was generated with a Scalar-Relativistic Calculation
nl pn  l   occ               Rcut            Rcut US             E pseu
4s  0  0  2.00      0.00000000000      0.00000000000      0.00000000000
4p  0  1  6.00      0.00000000000      0.00000000000      0.00000000000
4d  0  2  0.00      0.00000000000      0.00000000000      0.00000000000
5s  0  3  0.00      0.00000000000      0.00000000000      0.00000000000
</PP_INFO>


<PP_HEADER>
   0                   Version Number
  Sr                   Element
   NC                  Norm - Conserving pseudopotential
    F                  Nonlinear Core Correction
SLA  PW   PBE  PBE     PBE  Exchange-Correlation functional
   10.00000000000      Z valence
    0.00000000000      Total energy
  0.0000000  0.0000000 Suggested cutoff for wfc and rho
    2                  Max angular momentum component
 1138                  Number of points in mesh
    4    3             Number of Wavefunctions, Number of Projectors
 Wavefunctions         nl  l   occ
                       4s  0  2.00
                       4p  1  6.00
                       4d  2  0.00
                       5s  3  0.00
</PP_HEADER>


<PP_MESH>
  <PP_R>
  2.97444174630E-05  3.01336192201E-05  3.05279136307E-05  3.09273673313E-05
  3.13320478307E-05  3.17420235206E-05  3.21573636881E-05  3.25781385266E-05
  3.30044191481E-05  3.34362775949E-05  3.38737868523E-05  3.43170208602E-05
  3.47660545263E-05  3.52209637384E-05  3.56818253772E-05  3.61487173295E-05
  3.66217185009E-05  3.71009088300E-05  3.75863693010E-05  3.80781819578E-05
  3.85764299180E-05  3.90811973867E-05  3.95925696708E-05  4.01106331934E-05
  4.06354755084E-05  4.11671853156E-05  4.17058524750E-05  4.22515680228E-05
  4.28044241861E-05  4.33645143990E-05  4.39319333180E-05  4.45067768383E-05
  4.50891421099E-05  4.56791275537E-05  4.62768328789E-05  4.68823590990E-05
  4.74958085493E-05  4.81172849043E-05  4.87468931950E-05  4.93847398266E-05
  5.00309325969E-05  5.06855807138E-05  5.13487948145E-05  5.20206869837E-05
  5.27013707729E-05  5.33909612191E-05  5.40895748649E-05  5.47973297775E-05
  5.55143455693E-05  5.62407434177E-05  5.69766460855E-05  5.77221779422E-05
  5.84774649842E-05  5.92426348571E-05  6.00178168763E-05  6.08031420493E-05
  6.15987430981E-05  6.24047544810E-05  6.32213124161E-05  6.40485549033E-05
  6.48866217488E-05  6.57356545878E-05  6.65957969089E-05  6.74671940782E-05
  6.83499933639E-05  6.92443439611E-05  7.01503970172E-05  7.10683056574E-05
  7.19982250104E-05  7.29403122348E-05  7.38947265456E-05  7.48616292411E-05
  7.58411837300E-05  7.68335555595E-05  7.78389124428E-05  7.88574242876E-05
  7.98892632247E-05  8.09346036375E-05  8.19936221909E-05  8.30664978616E-05
  8.41534119682E-05  8.52545482016E-05  8.63700926567E-05  8.75002338629E-05
  8.86451628170E-05  8.98050730145E-05  9.09801604832E-05  9.21706238155E-05
  9.33766642026E-05  9.45984854682E-05  9.58362941029E-05  9.70902992995E-05
  9.83607129878E-05  9.96477498707E-05  1.00951627460E-04  1.02272566115E-04
  1.03610789078E-04  1.04966522510E-04  1.06339995534E-04  1.07731440271E-04
  1.09141091877E-04  1.10569188588E-04  1.12015971755E-04  1.13481685887E-04
  1.14966578695E-04  1.16470901128E-04  1.17994907420E-04  1.19538855133E-04
  1.21103005197E-04  1.22687621957E-04  1.24292973217E-04  1.25919330285E-04
  1.27566968020E-04  1.29236164876E-04  1.30927202951E-04  1.32640368036E-04
  1.34375949658E-04  1.36134241136E-04  1.37915539624E-04  1.39720146167E-04
  1.41548365747E-04  1.43400507338E-04  1.45276883956E-04  1.47177812713E-04
  1.49103614870E-04  1.51054615894E-04  1.53031145507E-04  1.55033537748E-04
  1.57062131025E-04  1.59117268177E-04  1.61199296526E-04  1.63308567939E-04
  1.65445438890E-04  1.67610270513E-04  1.69803428671E-04  1.72025284012E-04
  1.74276212036E-04  1.76556593154E-04  1.78866812757E-04  1.81207261277E-04
  1.83578334256E-04  1.85980432409E-04  1.88413961699E-04  1.90879333397E-04
  1.93376964156E-04  1.95907276082E-04  1.98470696805E-04  2.01067659547E-04
  2.03698603203E-04  2.06363972407E-04  2.09064217614E-04  2.11799795171E-04
  2.14571167398E-04  2.17378802662E-04  2.20223175462E-04  2.23104766502E-04
  2.26024062779E-04  2.28981557661E-04  2.31977750971E-04  2.35013149073E-04
  2.38088264956E-04  2.41203618323E-04  2.44359735675E-04  2.47557150405E-04
  2.50796402882E-04  2.54078040548E-04  2.57402618007E-04  2.60770697122E-04
  2.64182847105E-04  2.67639644618E-04  2.71141673868E-04  2.74689526707E-04
  2.78283802729E-04  2.81925109376E-04  2.85614062037E-04  2.89351284155E-04
  2.93137407329E-04  2.96973071422E-04  3.00858924671E-04  3.04795623794E-04
  3.08783834104E-04  3.12824229616E-04  3.16917493167E-04  3.21064316529E-04
  3.25265400525E-04  3.29521455148E-04  3.33833199680E-04  3.38201362818E-04
  3.42626682792E-04  3.47109907490E-04  3.51651794589E-04  3.56253111678E-04
  3.60914636391E-04  3.65637156536E-04  3.70421470231E-04  3.75268386036E-04
  3.80178723092E-04  3.85153311257E-04  3.90192991248E-04  3.95298614783E-04
  4.00471044725E-04  4.05711155227E-04  4.11019831879E-04  4.16397971861E-04
  4.21846484092E-04  4.27366289383E-04  4.32958320593E-04  4.38623522791E-04
  4.44362853407E-04  4.50177282404E-04  4.56067792432E-04  4.62035379003E-04
  4.68081050653E-04  4.74205829115E-04  4.80410749490E-04  4.86696860425E-04
  4.93065224288E-04  4.99516917348E-04  5.06053029955E-04  5.12674666729E-04
  5.19382946742E-04  5.26179003709E-04  5.33063986180E-04  5.40039057734E-04
  5.47105397173E-04  5.54264198727E-04  5.61516672250E-04  5.68864043427E-04
  5.76307553981E-04  5.83848461883E-04  5.91488041565E-04  5.99227584134E-04
  6.07068397590E-04  6.15011807051E-04  6.23059154971E-04  6.31211801371E-04
  6.39471124068E-04  6.47838518907E-04  6.56315399997E-04  6.64903199953E-04
  6.73603370131E-04  6.82417380882E-04  6.91346721795E-04  7.00392901950E-04
  7.09557450171E-04  7.18841915291E-04  7.28247866405E-04  7.37776893142E-04
  7.47430605930E-04  7.57210636269E-04  7.67118637008E-04  7.77156282623E-04
  7.87325269499E-04  7.97627316219E-04  8.08064163855E-04  8.18637576257E-04
  8.29349340358E-04  8.40201266471E-04  8.51195188599E-04  8.62332964739E-04
  8.73616477202E-04  8.85047632930E-04  8.96628363814E-04  9.08360627026E-04
  9.20246405345E-04  9.32287707497E-04  9.44486568491E-04  9.56845049963E-04
  9.69365240526E-04  9.82049256121E-04  9.94899240378E-04  1.00791736497E-03
  1.02110583001E-03  1.03446686435E-03  1.04800272606E-03  1.06171570272E-03
  1.07560811187E-03  1.08968230134E-03  1.10394064972E-03  1.11838556669E-03
  1.13301949349E-03  1.14784490328E-03  1.16286430159E-03  1.17808022673E-03
  1.19349525024E-03  1.20911197728E-03  1.22493304713E-03  1.24096113357E-03
  1.25719894541E-03  1.27364922685E-03  1.29031475805E-03  1.30719835551E-03
  1.32430287260E-03  1.34163120004E-03  1.35918626633E-03  1.37697103835E-03
  1.39498852174E-03  1.41324176152E-03  1.43173384251E-03  1.45046788994E-03
  1.46944706989E-03  1.48867458989E-03  1.50815369944E-03  1.52788769055E-03
  1.54787989833E-03  1.56813370148E-03  1.58865252297E-03  1.60943983052E-03
  1.63049913722E-03  1.65183400216E-03  1.67344803098E-03  1.69534487650E-03
  1.71752823934E-03  1.74000186854E-03  1.76276956219E-03  1.78583516810E-03
  1.80920258440E-03  1.83287576024E-03  1.85685869645E-03  1.88115544620E-03
  1.90577011570E-03  1.93070686488E-03  1.95596990812E-03  1.98156351493E-03
  2.00749201068E-03  2.03375977737E-03  2.06037125430E-03  2.08733093887E-03
  2.11464338734E-03  2.14231321558E-03  2.17034509985E-03  2.19874377761E-03
  2.22751404830E-03  2.25666077416E-03  2.28618888107E-03  2.31610335933E-03
  2.34640926458E-03  2.37711171858E-03  2.40821591012E-03  2.43972709588E-03
  2.47165060132E-03  2.50399182160E-03  2.53675622245E-03  2.56994934115E-03
  2.60357678740E-03  2.63764424432E-03  2.67215746940E-03  2.70712229545E-03
  2.74254463162E-03  2.77843046435E-03  2.81478585844E-03  2.85161695805E-03
  2.88892998770E-03  2.92673125341E-03  2.96502714365E-03  3.00382413055E-03
  3.04312877087E-03  3.08294770719E-03  3.12328766902E-03  3.16415547389E-03
  3.20555802858E-03  3.24750233019E-03  3.28999546744E-03  3.33304462174E-03
  3.37665706852E-03  3.42084017838E-03  3.46560141838E-03  3.51094835326E-03
  3.55688864677E-03  3.60343006292E-03  3.65058046734E-03  3.69834782854E-03
  3.74674021932E-03  3.79576581813E-03  3.84543291039E-03  3.89574988996E-03
  3.94672526054E-03  3.99836763708E-03  4.05068574726E-03  4.10368843298E-03
  4.15738465181E-03  4.21178347855E-03  4.26689410671E-03  4.32272585014E-03
  4.37928814452E-03  4.43659054902E-03  4.49464274788E-03  4.55345455207E-03
  4.61303590091E-03  4.67339686380E-03  4.73454764188E-03  4.79649856979E-03
  4.85926011736E-03  4.92284289147E-03  4.98725763773E-03  5.05251524241E-03
  5.11862673419E-03  5.18560328607E-03  5.25345621725E-03  5.32219699504E-03
  5.39183723678E-03  5.46238871185E-03  5.53386334361E-03  5.60627321145E-03
  5.67963055280E-03  5.75394776524E-03  5.82923740854E-03  5.90551220684E-03
  5.98278505076E-03  6.06106899959E-03  6.14037728351E-03  6.22072330580E-03
  6.30212064514E-03  6.38458305787E-03  6.46812448033E-03  6.55275903122E-03
  6.63850101399E-03  6.72536491922E-03  6.81336542714E-03  6.90251741003E-03
  6.99283593478E-03  7.08433626546E-03  7.17703386583E-03  7.27094440200E-03
  7.36608374508E-03  7.46246797384E-03  7.56011337746E-03  7.65903645823E-03
  7.75925393439E-03  7.86078274293E-03  7.96364004246E-03  8.06784321612E-03
  8.17340987448E-03  8.28035785857E-03  8.38870524284E-03  8.49847033826E-03
  8.60967169540E-03  8.72232810755E-03  8.83645861390E-03  8.95208250280E-03
  9.06921931494E-03  9.18788884673E-03  9.30811115361E-03  9.42990655342E-03
  9.55329562989E-03  9.67829923606E-03  9.80493849783E-03  9.93323481754E-03
  1.00632098776E-02  1.01948856440E-02  1.03282843704E-02  1.04634286015E-02
  1.06003411769E-02  1.07390452351E-02  1.08795642176E-02  1.10219218723E-02
  1.11661422581E-02  1.13122497484E-02  1.14602690359E-02  1.16102251362E-02
  1.17621433921E-02  1.19160494783E-02  1.20719694051E-02  1.22299295236E-02
  1.23899565292E-02  1.25520774670E-02  1.27163197357E-02  1.28827110928E-02
  1.30512796587E-02  1.32220539219E-02  1.33950627437E-02  1.35703353630E-02
  1.37479014012E-02  1.39277908675E-02  1.41100341636E-02  1.42946620891E-02
  1.44817058465E-02  1.46711970466E-02  1.48631677140E-02  1.50576502921E-02
  1.52546776489E-02  1.54542830826E-02  1.56565003268E-02  1.58613635569E-02
  1.60689073952E-02  1.62791669171E-02  1.64921776569E-02  1.67079756141E-02
  1.69265972588E-02  1.71480795388E-02  1.73724598850E-02  1.75997762184E-02
  1.78300669557E-02  1.80633710169E-02  1.82997278307E-02  1.85391773421E-02
  1.87817600186E-02  1.90275168572E-02  1.92764893915E-02  1.95287196983E-02
  1.97842504053E-02  2.00431246976E-02  2.03053863258E-02  2.05710796125E-02
  2.08402494607E-02  2.11129413606E-02  2.13892013979E-02  2.16690762612E-02
  2.19526132498E-02  2.22398602824E-02  2.25308659043E-02  2.28256792962E-02
  2.31243502822E-02  2.34269293384E-02  2.37334676014E-02  2.40440168770E-02
  2.43586296486E-02  2.46773590866E-02  2.50002590571E-02  2.53273841308E-02
  2.56587895927E-02  2.59945314511E-02  2.63346664473E-02  2.66792520647E-02
  2.70283465392E-02  2.73820088686E-02  2.77402988227E-02  2.81032769533E-02
  2.84710046047E-02  2.88435439235E-02  2.92209578699E-02  2.96033102278E-02
  2.99906656155E-02  3.03830894971E-02  3.07806481932E-02  3.11834088921E-02
  3.15914396612E-02  3.20048094589E-02  3.24235881455E-02  3.28478464958E-02
  3.32776562102E-02  3.37130899278E-02  3.41542212378E-02  3.46011246924E-02
  3.50538758195E-02  3.55125511351E-02  3.59772281563E-02  3.64479854147E-02
  3.69249024694E-02  3.74080599205E-02  3.78975394227E-02  3.83934236993E-02
  3.88957965559E-02  3.94047428947E-02  3.99203487288E-02  4.04427011969E-02
  4.09718885777E-02  4.15080003053E-02  4.20511269836E-02  4.26013604025E-02
  4.31587935527E-02  4.37235206418E-02  4.42956371099E-02  4.48752396461E-02
  4.54624262046E-02  4.60572960213E-02  4.66599496307E-02  4.72704888827E-02
  4.78890169597E-02  4.85156383946E-02  4.91504590879E-02  4.97935863258E-02
  5.04451287982E-02  5.11051966175E-02  5.17739013366E-02  5.24513559683E-02
  5.31376750040E-02  5.38329744332E-02  5.45373717633E-02  5.52509860389E-02
  5.59739378628E-02  5.67063494153E-02  5.74483444759E-02  5.82000484434E-02
  5.89615883576E-02  5.97330929206E-02  6.05146925184E-02  6.13065192433E-02
  6.21087069159E-02  6.29213911078E-02  6.37447091646E-02  6.45788002289E-02
  6.54238052641E-02  6.62798670782E-02  6.71471303475E-02  6.80257416417E-02
  6.89158494481E-02  6.98176041971E-02  7.07311582874E-02  7.16566661118E-02
  7.25942840834E-02  7.35441706617E-02  7.45064863799E-02  7.54813938716E-02
  7.64690578985E-02  7.74696453783E-02  7.84833254125E-02  7.95102693154E-02
  8.05506506432E-02  8.16046452226E-02  8.26724311813E-02  8.37541889776E-02
  8.48501014312E-02  8.59603537539E-02  8.70851335810E-02  8.82246310029E-02
  8.93790385974E-02  9.05485514622E-02  9.17333672477E-02  9.29336861906E-02
  9.41497111477E-02  9.53816476300E-02  9.66297038378E-02  9.78940906955E-02
  9.91750218876E-02  1.00472713894E-01  1.01787386029E-01  1.03119260474E-01
  1.04468562320E-01  1.05835519601E-01  1.07220363337E-01  1.08623327569E-01
  1.10044649403E-01  1.11484569044E-01  1.12943329842E-01  1.14421178333E-01
  1.15918364274E-01  1.17435140695E-01  1.18971763935E-01  1.20528493685E-01
  1.22105593038E-01  1.23703328527E-01  1.25321970173E-01  1.26961791530E-01
  1.28623069732E-01  1.30306085539E-01  1.32011123384E-01  1.33738471424E-01
  1.35488421583E-01  1.37261269608E-01  1.39057315115E-01  1.40876861638E-01
  1.42720216687E-01  1.44587691792E-01  1.46479602561E-01  1.48396268731E-01
  1.50338014224E-01  1.52305167200E-01  1.54298060111E-01  1.56317029761E-01
  1.58362417362E-01  1.60434568588E-01  1.62533833637E-01  1.64660567292E-01
  1.66815128974E-01  1.68997882811E-01  1.71209197691E-01  1.73449447334E-01
  1.75719010346E-01  1.78018270289E-01  1.80347615743E-01  1.82707440374E-01
  1.85098142997E-01  1.87520127647E-01  1.89973803644E-01  1.92459585667E-01
  1.94977893817E-01  1.97529153696E-01  2.00113796472E-01  2.02732258955E-01
  2.05384983673E-01  2.08072418942E-01  2.10795018945E-01  2.13553243808E-01
  2.16347559678E-01  2.19178438800E-01  2.22046359600E-01  2.24951806763E-01
  2.27895271317E-01  2.30877250714E-01  2.33898248916E-01  2.36958776479E-01
  2.40059350639E-01  2.43200495400E-01  2.46382741624E-01  2.49606627118E-01
  2.52872696726E-01  2.56181502422E-01  2.59533603401E-01  2.62929566177E-01
  2.66369964675E-01  2.69855380332E-01  2.73386402190E-01  2.76963627000E-01
  2.80587659323E-01  2.84259111628E-01  2.87978604400E-01  2.91746766241E-01
  2.95564233980E-01  2.99431652777E-01  3.03349676237E-01  3.07318966515E-01
  3.11340194429E-01  3.15414039576E-01  3.19541190448E-01  3.23722344541E-01
  3.27958208480E-01  3.32249498138E-01  3.36596938752E-01  3.41001265049E-01
  3.45463221371E-01  3.49983561801E-01  3.54563050285E-01  3.59202460769E-01
  3.63902577323E-01  3.68664194279E-01  3.73488116362E-01  3.78375158825E-01
  3.83326147590E-01  3.88341919387E-01  3.93423321893E-01  3.98571213876E-01
  4.03786465343E-01  4.09069957684E-01  4.14422583821E-01  4.19845248361E-01
  4.25338867747E-01  4.30904370415E-01  4.36542696946E-01  4.42254800233E-01
  4.48041645633E-01  4.53904211138E-01  4.59843487535E-01  4.65860478575E-01
  4.71956201146E-01  4.78131685437E-01  4.84387975122E-01  4.90726127527E-01
  4.97147213816E-01  5.03652319167E-01  5.10242542959E-01  5.16918998954E-01
  5.23682815492E-01  5.30535135671E-01  5.37477117551E-01  5.44509934343E-01
  5.51634774610E-01  5.58852842467E-01  5.66165357784E-01  5.73573556394E-01
  5.81078690301E-01  5.88682027889E-01  5.96384854141E-01  6.04188470853E-01
  6.12094196854E-01  6.20103368232E-01  6.28217338555E-01  6.36437479103E-01
  6.44765179100E-01  6.53201845946E-01  6.61748905460E-01  6.70407802113E-01
  6.79179999281E-01  6.88066979485E-01  6.97070244646E-01  7.06191316338E-01
  7.15431736043E-01  7.24793065414E-01  7.34276886538E-01  7.43884802204E-01
  7.53618436172E-01  7.63479433449E-01  7.73469460567E-01  7.83590205866E-01
  7.93843379774E-01  8.04230715103E-01  8.14753967337E-01  8.25414914930E-01
  8.36215359609E-01  8.47157126673E-01  8.58242065309E-01  8.69472048896E-01
  8.80848975329E-01  8.92374767335E-01  9.04051372801E-01  9.15880765101E-01
  9.27864943429E-01  9.40005933142E-01  9.52305786094E-01  9.64766580991E-01
  9.77390423737E-01  9.90179447790E-01  1.00313581453E+00  1.01626171360E+00
  1.02955936333E+00  1.04303101104E+00  1.05667893347E+00  1.07050543716E+00
  1.08451285881E+00  1.09870356572E+00  1.11307995614E+00  1.12764445973E+00
  1.14239953791E+00  1.15734768434E+00  1.17249142528E+00  1.18783332006E+00
  1.20337596150E+00  1.21912197634E+00  1.23507402569E+00  1.25123480550E+00
  1.26760704696E+00  1.28419351704E+00  1.30099701887E+00  1.31802039230E+00
  1.33526651431E+00  1.35273829954E+00  1.37043870076E+00  1.38837070939E+00
  1.40653735596E+00  1.42494171070E+00  1.44358688398E+00  1.46247602688E+00
  1.48161233171E+00  1.50099903255E+00  1.52063940580E+00  1.54053677073E+00
  1.56069449003E+00  1.58111597043E+00  1.60180466318E+00  1.62276406473E+00
  1.64399771728E+00  1.66550920935E+00  1.68730217644E+00  1.70938030161E+00
  1.73174731613E+00  1.75440700006E+00  1.77736318295E+00  1.80061974445E+00
  1.82418061497E+00  1.84804977636E+00  1.87223126256E+00  1.89672916029E+00
  1.92154760977E+00  1.94669080537E+00  1.97216299635E+00  1.99796848757E+00
  2.02411164022E+00  2.05059687255E+00  2.07742866064E+00  2.10461153911E+00
  2.13215010195E+00  2.16004900322E+00  2.18831295792E+00  2.21694674271E+00
  2.24595519679E+00  2.27534322263E+00  2.30511578690E+00  2.33527792122E+00
  2.36583472307E+00  2.39679135661E+00  2.42815305360E+00  2.45992511424E+00
  2.49211290807E+00  2.52472187492E+00  2.55775752578E+00  2.59122544374E+00
  2.62513128497E+00  2.65948077964E+00  2.69427973288E+00  2.72953402582E+00
  2.76524961650E+00  2.80143254095E+00  2.83808891417E+00  2.87522493116E+00
  2.91284686802E+00  2.95096108292E+00  2.98957401728E+00  3.02869219676E+00
  3.06832223242E+00  3.10847082185E+00  3.14914475025E+00  3.19035089160E+00
  3.23209620985E+00  3.27438776005E+00  3.31723268958E+00  3.36063823932E+00
  3.40461174493E+00  3.44916063802E+00  3.49429244747E+00  3.54001480066E+00
  3.58633542478E+00  3.63326214812E+00  3.68080290141E+00  3.72896571916E+00
  3.77775874098E+00  3.82719021302E+00  3.87726848932E+00  3.92800203322E+00
  3.97939941882E+00  4.03146933238E+00  4.08422057386E+00  4.13766205834E+00
  4.19180281755E+00  4.24665200142E+00  4.30221887958E+00  4.35851284297E+00
  4.41554340541E+00  4.47332020519E+00  4.53185300673E+00  4.59115170222E+00
  4.65122631327E+00  4.71208699264E+00  4.77374402593E+00  4.83620783332E+00
  4.89948897134E+00  4.96359813466E+00  5.02854615788E+00  5.09434401737E+00
  5.16100283312E+00  5.22853387064E+00  5.29694854282E+00  5.36625841192E+00
  5.43647519146E+00  5.50761074824E+00  5.57967710435E+00  5.65268643917E+00
  5.72665109145E+00  5.80158356140E+00  5.87749651278E+00  5.95440277506E+00
  6.03231534558E+00  6.11124739175E+00  6.19121225327E+00  6.27222344440E+00
  6.35429465622E+00  6.43743975896E+00  6.52167280435E+00  6.60700802795E+00
  6.69345985165E+00  6.78104288598E+00  6.86977193271E+00  6.95966198724E+00
  7.05072824121E+00  7.14298608504E+00  7.23645111051E+00  7.33113911345E+00
  7.42706609634E+00  7.52424827109E+00  7.62270206170E+00  7.72244410710E+00
  7.82349126393E+00  7.92586060941E+00  8.02956944420E+00  8.13463529533E+00
  8.24107591919E+00  8.34890930450E+00  8.45815367535E+00  8.56882749430E+00
  8.68094946549E+00  8.79453853780E+00  8.90961390806E+00  9.02619502427E+00
  9.14430158893E+00  9.26395356232E+00  9.38517116591E+00  9.50797488576E+00
  9.63238547600E+00  9.75842396232E+00  9.88611164550E+00  1.00154701051E+01
  1.01465212030E+01  1.02792870871E+01  1.04137901952E+01  1.05500532586E+01
  1.06880993061E+01  1.08279516678E+01  1.09696339792E+01  1.11131701848E+01
  1.12585845426E+01  1.14059016280E+01  1.15551463379E+01  1.17063438951E+01
  1.18595198522E+01  1.20147000964E+01  1.21719108536E+01  1.23311786926E+01
  1.24925305302E+01  1.26559936352E+01  1.28215956332E+01  1.29893645114E+01
  1.31593286231E+01  1.33315166927E+01  1.35059578203E+01  1.36826814870E+01
  1.38617175593E+01  1.40430962950E+01  1.42268483473E+01  1.44130047709E+01
  1.46015970266E+01  1.47926569869E+01  1.49862169415E+01  1.51823096024E+01
  1.53809681098E+01  1.55822260373E+01  1.57861173982E+01  1.59926766505E+01
  1.62019387032E+01  1.64139389221E+01  1.66287131357E+01  1.68462976415E+01
  1.70667292116E+01  1.72900450996E+01  1.75162830464E+01  1.77454812867E+01
  1.79776785556E+01  1.82129140949E+01  1.84512276601E+01  1.86926595266E+01
  1.89372504972E+01  1.91850419081E+01  1.94360756367E+01  1.96903941084E+01
  1.99480403036E+01  2.02090577651E+01  2.04734906054E+01  2.07413835143E+01
  2.10127817665E+01  2.12877312288E+01  2.15662783683E+01  2.18484702602E+01
  2.21343545956E+01  2.24239796895E+01  2.27173944894E+01  2.30146485831E+01
  2.33157922071E+01  2.36208762556E+01  2.39299522883E+01  2.42430725399E+01
  2.45602899285E+01  2.48816580645E+01  2.52072312600E+01  2.55370645375E+01
  2.58712136398E+01  2.62097350387E+01  2.65526859452E+01  2.69001243188E+01
  2.72521088775E+01  2.76086991074E+01  2.79699552732E+01  2.83359384281E+01
  2.87067104239E+01  2.90823339221E+01  2.94628724040E+01  2.98483901815E+01
  3.02389524079E+01  3.06346250892E+01  3.10354750952E+01  3.14415701702E+01
  3.18529789455E+01  3.22697709500E+01  3.26920166226E+01  3.31197873238E+01
  3.35531553480E+01  3.39921939352E+01  3.44369772841E+01  3.48875805641E+01
  3.53440799283E+01  3.58065525261E+01  3.62750765166E+01  3.67497310812E+01
  3.72305964380E+01  3.77177538541E+01  3.82112856604E+01  3.87112752649E+01
  3.92178071670E+01  3.97309669720E+01  4.02508414049E+01  4.07775183258E+01
  4.13110867443E+01  4.18516368349E+01  4.23992599516E+01  4.29540486443E+01
  4.35160966733E+01  4.40854990263E+01  4.46623519336E+01  4.52467528846E+01
  4.58388006446E+01  4.64385952709E+01  4.70462381304E+01  4.76618319161E+01
  4.82854806649E+01  4.89172897748E+01  4.95573660231E+01  5.02058175842E+01
  5.08627540480E+01  5.15282864383E+01  5.22025272316E+01  5.28855903763E+01
  5.35775913116E+01  5.42786469874E+01  5.49888758837E+01  5.57083980309E+01
  5.64373350299E+01  5.71758100729E+01  5.79239479639E+01  5.86818751400E+01
  5.94497196926E+01  6.02276113894E+01  6.10156816958E+01  6.18140637977E+01
  6.26228926234E+01  6.34423048671E+01  6.42724390113E+01  6.51134353506E+01
  6.59654360155E+01  6.68285849961E+01  6.77030281666E+01  6.85889133101E+01
  6.94863901431E+01  7.03956103414E+01  7.13167275654E+01  7.22498974862E+01
  7.31952778115E+01  7.41530283131E+01  7.51233108529E+01  7.61062894110E+01
  7.71021301132E+01  7.81110012589E+01
  </PP_R>
  <PP_RAB>
  3.86677427018E-07  3.91737049862E-07  3.96862877199E-07  4.02055775307E-07
  4.07316621799E-07  4.12646305768E-07  4.18045727946E-07  4.23515800846E-07
  4.29057448925E-07  4.34671608734E-07  4.40359229079E-07  4.46121271183E-07
  4.51958708842E-07  4.57872528600E-07  4.63863729904E-07  4.69933325283E-07
  4.76082340512E-07  4.82311814790E-07  4.88622800913E-07  4.95016365452E-07
  5.01493588935E-07  5.08055566028E-07  5.14703405720E-07  5.21438231514E-07
  5.28261181610E-07  5.35173409102E-07  5.42176082175E-07  5.49270384296E-07
  5.56457514419E-07  5.63738687187E-07  5.71115133134E-07  5.78588098898E-07
  5.86158847428E-07  5.93828658199E-07  6.01598827426E-07  6.09470668286E-07
  6.17445511141E-07  6.25524703756E-07  6.33709611535E-07  6.42001617746E-07
  6.50402123759E-07  6.58912549279E-07  6.67534332588E-07  6.76268930788E-07
  6.85117820047E-07  6.94082495848E-07  7.03164473243E-07  7.12365287108E-07
  7.21686492401E-07  7.31129664430E-07  7.40696399112E-07  7.50388313248E-07
  7.60207044795E-07  7.70154253142E-07  7.80231619391E-07  7.90440846641E-07
  8.00783660275E-07  8.11261808254E-07  8.21877061409E-07  8.32631213743E-07
  8.43526082735E-07  8.54563509642E-07  8.65745359816E-07  8.77073523017E-07
  8.88549913730E-07  9.00176471494E-07  9.11955161224E-07  9.23887973546E-07
  9.35976925136E-07  9.48224059053E-07  9.60631445093E-07  9.73201180134E-07
  9.85935388490E-07  9.98836222274E-07  1.01190586176E-06  1.02514651574E-06
  1.03856042192E-06  1.05214984729E-06  1.06591708848E-06  1.07986447220E-06
  1.09399435559E-06  1.10830912662E-06  1.12281120454E-06  1.13750304022E-06
  1.15238711662E-06  1.16746594919E-06  1.18274208628E-06  1.19821810960E-06
  1.21389663463E-06  1.22978031109E-06  1.24587182334E-06  1.26217389089E-06
  1.27868926884E-06  1.29542074832E-06  1.31237115699E-06  1.32954335950E-06
  1.34694025801E-06  1.36456479263E-06  1.38241994194E-06  1.40050872352E-06
  1.41883419440E-06  1.43739945164E-06  1.45620763281E-06  1.47526191653E-06
  1.49456552303E-06  1.51412171466E-06  1.53393379646E-06  1.55400511673E-06
  1.57433906756E-06  1.59493908544E-06  1.61580865182E-06  1.63695129370E-06
  1.65837058426E-06  1.68007014339E-06  1.70205363837E-06  1.72432478446E-06
  1.74688734555E-06  1.76974513476E-06  1.79290201511E-06  1.81636190017E-06
  1.84012875471E-06  1.86420659539E-06  1.88859949142E-06  1.91331156526E-06
  1.93834699331E-06  1.96371000662E-06  1.98940489159E-06  2.01543599072E-06
  2.04180770333E-06  2.06852448630E-06  2.09559085484E-06  2.12301138321E-06
  2.15079070556E-06  2.17893351667E-06  2.20744457272E-06  2.23632869215E-06
  2.26559075646E-06  2.29523571100E-06  2.32526856584E-06  2.35569439660E-06
  2.38651834532E-06  2.41774562132E-06  2.44938150209E-06  2.48143133416E-06
  2.51390053403E-06  2.54679458907E-06  2.58011905846E-06  2.61387957411E-06
  2.64808184163E-06  2.68273164129E-06  2.71783482898E-06  2.75339733722E-06
  2.78942517617E-06  2.82592443461E-06  2.86290128100E-06  2.90036196453E-06
  2.93831281613E-06  2.97676024959E-06  3.01571076262E-06  3.05517093794E-06
  3.09514744443E-06  3.13564703820E-06  3.17667656378E-06  3.21824295526E-06
  3.26035323746E-06  3.30301452712E-06  3.34623403410E-06  3.39001906259E-06
  3.43437701237E-06  3.47931538004E-06  3.52484176029E-06  3.57096384719E-06
  3.61768943547E-06  3.66502642189E-06  3.71298280649E-06  3.76156669402E-06
  3.81078629528E-06  3.86064992849E-06  3.91116602072E-06  3.96234310933E-06
  4.01418984335E-06  4.06671498500E-06  4.11992741117E-06  4.17383611488E-06
  4.22845020682E-06  4.28377891692E-06  4.33983159584E-06  4.39661771664E-06
  4.45414687629E-06  4.51242879737E-06  4.57147332966E-06  4.63129045181E-06
  4.69189027308E-06  4.75328303497E-06  4.81547911301E-06  4.87848901847E-06
  4.94232340020E-06  5.00699304634E-06  5.07250888622E-06  5.13888199218E-06
  5.20612358142E-06  5.27424501795E-06  5.34325781443E-06  5.41317363420E-06
  5.48400429320E-06  5.55576176198E-06  5.62845816771E-06  5.70210579628E-06
  5.77671709429E-06  5.85230467125E-06  5.92888130162E-06  6.00645992704E-06
  6.08505365849E-06  6.16467577849E-06  6.24533974337E-06  6.32705918553E-06
  6.40984791575E-06  6.49371992552E-06  6.57868938942E-06  6.66477066748E-06
  6.75197830765E-06  6.84032704822E-06  6.92983182034E-06  7.02050775054E-06
  7.11237016325E-06  7.20543458345E-06  7.29971673925E-06  7.39523256454E-06
  7.49199820175E-06  7.59003000448E-06  7.68934454034E-06  7.78995859374E-06
  7.89188916867E-06  7.99515349166E-06  8.09976901462E-06  8.20575341783E-06
  8.31312461288E-06  8.42190074579E-06  8.53210019997E-06  8.64374159938E-06
  8.75684381170E-06  8.87142595147E-06  8.98750738334E-06  9.10510772534E-06
  9.22424685223E-06  9.34494489878E-06  9.46722226327E-06  9.59109961085E-06
  9.71659787709E-06  9.84373827150E-06  9.97254228111E-06  1.01030316741E-05
  1.02352285035E-05  1.03691551109E-05  1.05048341301E-05  1.06422884913E-05
  1.07815414247E-05  1.09226164641E-05  1.10655374518E-05  1.12103285416E-05
  1.13570142036E-05  1.15056192281E-05  1.16561687296E-05  1.18086881513E-05
  1.19632032695E-05  1.21197401975E-05  1.22783253904E-05  1.24389856495E-05
  1.26017481268E-05  1.27666403296E-05  1.29336901249E-05  1.31029257447E-05
  1.32743757901E-05  1.34480692366E-05  1.36240354388E-05  1.38023041354E-05
  1.39829054543E-05  1.41658699174E-05  1.43512284463E-05  1.45390123670E-05
  1.47292534154E-05  1.49219837426E-05  1.51172359206E-05  1.53150429475E-05
  1.55154382531E-05  1.57184557047E-05  1.59241296127E-05  1.61324947365E-05
  1.63435862903E-05  1.65574399491E-05  1.67740918546E-05  1.69935786216E-05
  1.72159373438E-05  1.74412056005E-05  1.76694214623E-05  1.79006234985E-05
  1.81348507826E-05  1.83721428997E-05  1.86125399527E-05  1.88560825692E-05
  1.91028119085E-05  1.93527696686E-05  1.96059980927E-05  1.98625399772E-05
  2.01224386782E-05  2.03857381193E-05  2.06524827986E-05  2.09227177967E-05
  2.11964887839E-05  2.14738420281E-05  2.17548244027E-05  2.20394833945E-05
  2.23278671114E-05  2.26200242910E-05  2.29160043085E-05  2.32158571853E-05
  2.35196335972E-05  2.38273848832E-05  2.41391630539E-05  2.44550208006E-05
  2.47750115041E-05  2.50991892435E-05  2.54276088055E-05  2.57603256940E-05
  2.60973961389E-05  2.64388771058E-05  2.67848263059E-05  2.71353022054E-05
  2.74903640355E-05  2.78500718026E-05  2.82144862981E-05  2.85836691089E-05
  2.89576826278E-05  2.93365900641E-05  2.97204554538E-05  3.01093436713E-05
  3.05033204396E-05  3.09024523415E-05  3.13068068315E-05  3.17164522464E-05